# vtk DataFile Version 3.1
this is an vtk file created by FEMAC
ASCII
DATASET UNSTRUCTURED_GRID
POINTS 32 FLOAT
1.000000 0.000000 0.000000
2.000000 0.000000 0.000000
1.250000 0.000000 0.000000
1.500000 0.000000 0.000000
1.750000 0.000000 0.000000
2.250000 0.000000 0.000000
2.500000 0.000000 0.000000
1.000000 0.250000 0.000000
1.000000 0.500000 0.000000
1.000000 0.750000 0.000000
2.000000 0.250000 0.000000
2.000000 0.500000 0.000000
2.000000 0.750000 0.000000
0.757669 0.416286 0.000000
1.462570 0.272476 0.000000
1.214699 0.660302 0.000000
1.787596 0.660045 0.000000
1.828307 0.162952 0.000000
1.638134 0.825570 0.000000
1.371728 0.825957 0.000000
1.502535 0.594871 0.000000
1.217467 0.400442 0.000000
1.746177 0.372389 0.000000
1.660592 0.165804 0.000000
1.835146 0.847123 0.000000
1.167285 0.847252 0.000000
1.238340 0.153820 0.000000
2.462570 0.272476 0.000000
2.214699 0.660302 0.000000
2.502535 0.594871 0.000000
2.217467 0.400442 0.000000
2.238340 0.153820 0.000000
CELLS 43 172 
3 13  7  8
3 8 15  9
3 16 11 12
3 17  4  1
3 10 17  1
3 20 16 18
3 21 15  8
3 16 22 11
3 20 21 14
3 20 15 21
3 22 20 14
3 16 20 22
3 7 21  8
3 22 10 11
3 17 10 22
3 20 19 15
3 18 19 20
3 17 23  4
3 12 24 16
3 25  9 15
3 23 22 14
3 17 22 23
3 15 19 25
3 18 16 24
3 23  3  4
3 3 23 14
3 2 26  0
3 26  7  0
3 3 26  2
3 21 26 14
3 26 21  7
3 3 14 26
3 11 28 12
3 30 28 11
3 29 30 27
3 29 28 30
3 10 30 11
3 5 31  1
3 31 10  1
3 6 31  5
3 30 31 27
3 31 30 10
3 6 27 31
CELL_TYPES 43
5 5 5 5 5 5 5 5 5 5 5 5 5 5 5 5 5 5 5 5 5 5 5 5 5 5 5 5 5 5 5 5 5 5 5 5 5 5 5 5 5 5 5 
POINT_DATA 32
VECTORS displacement_ITER1 FLOAT
 -5.044317e-03  -3.833942e-02  0 
 -1.318618e-01  -6.706025e-02  0 
 -4.610733e-02  -5.649147e-02  0 
 -7.891119e-02  -7.072358e-02  0 
 -1.034380e-01  -7.803260e-02  0 
 -1.319064e-01  -8.250169e-02  0 
 -1.319468e-01  -9.796765e-02  0 
 -1.083780e-02  -6.054556e-03  0 
 -8.065028e-03  -5.969640e-03  0 
 -1.824935e-02  1.569420e-02  0 
 -1.164233e-01  -6.700086e-02  0 
 -1.009451e-01  -6.692217e-02  0 
 -8.540071e-02  -6.683646e-02  0 
 -8.936029e-03  -3.307023e-03  0 
 -6.157139e-02  -3.784813e-02  0 
 -3.252514e-02  9.364252e-03  0 
 -7.954736e-02  -3.405884e-02  0 
 -1.095493e-01  -6.112704e-02  0 
 -6.184350e-02  -6.187490e-03  0 
 -4.249437e-02  1.558647e-02  0 
 -5.913885e-02  -8.078618e-03  0 
 -2.844044e-02  -1.174329e-02  0 
 -9.180278e-02  -4.440416e-02  0 
 -9.057521e-02  -5.991254e-02  0 
 -6.879163e-02  -3.276831e-02  0 
 -3.210903e-02  1.930549e-02  0 
 -4.004328e-02  -3.370833e-02  0 
 -1.150752e-01  -9.562067e-02  0 
 -9.102516e-02  -8.022574e-02  0 
 -9.512356e-02  -9.808842e-02  0 
 -1.071432e-01  -8.043358e-02  0 
 -1.223979e-01  -8.175172e-02  0 
VECTORS displacement_ITER2 FLOAT
 2.935782e-03  -3.380213e-02  0 
 -1.025209e-01  -7.499850e-02  0 
 -3.062055e-02  -6.003353e-02  0 
 -5.723046e-02  -7.893631e-02  0 
 -7.761977e-02  -8.604587e-02  0 
 -1.025609e-01  -8.808778e-02  0 
 -1.025965e-01  -1.011990e-01  0 
 8.903682e-03  -9.837642e-03  0 
 1.647112e-02  -9.763271e-03  0 
 1.505048e-02  1.019660e-02  0 
 -8.943262e-02  -7.494220e-02  0 
 -7.630025e-02  -7.485794e-02  0 
 -6.309027e-02  -7.475721e-02  0 
 1.398999e-02  -2.446344e-03  0 
 -3.826334e-02  -4.872290e-02  0 
 -3.327262e-03  -3.939581e-04  0 
 -5.473133e-02  -4.495075e-02  0 
 -8.285964e-02  -7.104913e-02  0 
 -3.477499e-02  -1.681388e-02  0 
 -1.216352e-02  5.060811e-03  0 
 -3.239854e-02  -2.092498e-02  0 
 -5.013868e-03  -2.069739e-02  0 
 -6.623040e-02  -5.651490e-02  0 
 -6.586139e-02  -7.041081e-02  0 
 -4.415725e-02  -4.116397e-02  0 
 9.083311e-04  1.175591e-02  0 
 -2.020478e-02  -4.157035e-02  0 
 -8.829391e-02  -9.920966e-02  0 
 -6.788559e-02  -8.614305e-02  0 
 -7.137692e-02  -1.013049e-01  0 
 -8.156679e-02  -8.633009e-02  0 
 -9.450085e-02  -8.745081e-02  0 
VECTORS displacement_ITER3 FLOAT
 -7.223022e-03  -7.840886e-03  0 
 -8.580796e-02  -4.895479e-02  0 
 -3.006315e-02  -4.058137e-02  0 
 -4.834838e-02  -6.009468e-02  0 
 -6.465948e-02  -6.230868e-02  0 
 -8.584170e-02  -5.710254e-02  0 
 -8.587081e-02  -6.526902e-02  0 
 9.172489e-03  1.768816e-04  0 
 1.293302e-02  2.309283e-04  0 
 3.823336e-03  8.337164e-03  0 
 -7.766026e-02  -4.890419e-02  0 
 -6.946395e-02  -4.881842e-02  0 
 -6.118883e-02  -4.871230e-02  0 
 1.171688e-02  3.866859e-03  0 
 -3.339787e-02  -3.341455e-02  0 
 -6.088855e-03  6.685423e-03  0 
 -5.168783e-02  -2.724909e-02  0 
 -7.102685e-02  -4.850748e-02  0 
 -3.532276e-02  -5.806233e-03  0 
 -1.510345e-02  1.103288e-02  0 
 -3.097055e-02  -9.465634e-03  0 
 -5.008517e-03  -9.684992e-03  0 
 -5.881304e-02  -3.758236e-02  0 
 -5.673685e-02  -5.067217e-02  0 
 -4.509729e-02  -2.305247e-02  0 
 -6.938538e-03  1.122996e-02  0 
 -1.652579e-02  -2.850343e-02  0 
 -7.696021e-02  -6.402740e-02  0 
 -6.421580e-02  -5.585802e-02  0 
 -6.641995e-02  -6.533848e-02  0 
 -7.276585e-02  -5.599562e-02  0 
 -8.082374e-02  -5.670047e-02  0 
VECTORS displacement_ITER4 FLOAT
 -2.046596e-02  5.645877e-04  0 
 -8.103267e-02  -4.828362e-02  0 
 -3.646389e-02  -3.683019e-02  0 
 -4.922733e-02  -5.800152e-02  0 
 -6.258939e-02  -5.989394e-02  0 
 -8.106279e-02  -5.645182e-02  0 
 -8.108870e-02  -6.463671e-02  0 
 2.061940e-03  -1.654440e-03  0 
 5.846629e-03  -1.617445e-03  0 
 -3.933623e-03  -5.572740e-03  0 
 -7.286441e-02  -4.823785e-02  0 
 -6.464665e-02  -4.815537e-02  0 
 -5.635685e-02  -4.805311e-02  0 
 4.612329e-03  2.047923e-03  0 
 -3.454307e-02  -3.449636e-02  0 
 -8.690265e-03  -9.991631e-04  0 
 -4.830794e-02  -3.079472e-02  0 
 -6.753073e-02  -4.808793e-02  0 
 -3.416419e-02  -1.394694e-02  0 
 -1.661129e-02  1.590246e-03  0 
 -3.060210e-02  -1.548831e-02  0 
 -9.682976e-03  -1.283638e-02  0 
 -5.577246e-02  -3.911408e-02  0 
 -5.537050e-02  -5.008619e-02  0 
 -4.299218e-02  -2.796413e-02  0 
 -1.217856e-02  -1.562805e-03  0 
 -2.050423e-02  -2.875847e-02  0 
 -7.215786e-02  -6.339643e-02  0 
 -5.938610e-02  -5.520790e-02  0 
 -6.159542e-02  -6.471266e-02  0 
 -6.795591e-02  -5.534757e-02  0 
 -7.603282e-02  -5.605119e-02  0 
VECTORS displacement_ITER5 FLOAT
 -2.113654e-02  1.191915e-02  0 
 -5.822839e-02  -3.174918e-02  0 
 -2.950483e-02  -2.389446e-02  0 
 -3.562577e-02  -4.286804e-02  0 
 -4.416929e-02  -4.302923e-02  0 
 -5.825398e-02  -3.773834e-02  0 
 -5.827656e-02  -4.374152e-02  0 
 1.591385e-03  1.852976e-03  0 
 5.009368e-03  1.866047e-03  0 
 7.870711e-03  -1.578997e-02  0 
 -5.223861e-02  -3.171018e-02  0 
 -4.619892e-02  -3.163241e-02  0 
 -4.009698e-02  -3.153521e-02  0 
 3.880600e-03  5.184431e-03  0 
 -2.382971e-02  -2.619467e-02  0 
 1.401897e-03  -6.724783e-03  0 
 -3.324791e-02  -2.256626e-02  0 
 -4.806231e-02  -3.387489e-02  0 
 -2.379265e-02  -1.335216e-02  0 
 -7.743656e-03  -2.389327e-03  0 
 -1.815653e-02  -1.569561e-02  0 
 -5.819826e-03  -1.054023e-02  0 
 -3.846867e-02  -2.925400e-02  0 
 -3.931968e-02  -3.688564e-02  0 
 -3.154082e-02  -2.098118e-02  0 
 -3.209971e-03  -7.196087e-03  0 
 -1.440763e-02  -2.035640e-02  0 
 -5.172188e-02  -4.283275e-02  0 
 -4.233703e-02  -3.680591e-02  0 
 -4.397534e-02  -4.380187e-02  0 
 -4.863903e-02  -3.692425e-02  0 
 -5.456504e-02  -3.744214e-02  0 
VECTORS displacement_ITER6 FLOAT
 -8.091377e-03  1.054980e-02  0 
 -4.901297e-02  -1.645618e-02  0 
 -1.830535e-02  -1.459445e-02  0 
 -2.601924e-02  -2.698772e-02  0 
 -3.521078e-02  -2.640871e-02  0 
 -4.903738e-02  -2.326033e-02  0 
 -4.905893e-02  -3.007756e-02  0 
 4.078566e-03  5.262484e-03  0 
 -6.532551e-05  5.270796e-03  0 
 5.350673e-03  -1.261352e-02  0 
 -4.220932e-02  -1.641970e-02  0 
 -3.535534e-02  -1.634621e-02  0 
 -2.845012e-02  -1.625913e-02  0 
 1.331309e-03  1.258622e-03  0 
 -1.826473e-02  -1.247365e-02  0 
 -1.350457e-04  -3.103137e-03  0 
 -2.450242e-02  -1.062185e-02  0 
 -3.883589e-02  -1.783367e-02  0 
 -1.890285e-02  -7.038303e-03  0 
 -7.792730e-03  6.403057e-04  0 
 -1.401071e-02  -6.557322e-03  0 
 -5.279429e-03  -1.827591e-03  0 
 -2.973690e-02  -1.423715e-02  0 
 -3.095988e-02  -2.037639e-02  0 
 -2.397785e-02  -1.162385e-02  0 
 -4.441114e-03  -4.261282e-03  0 
 -8.455660e-03  -9.886424e-03  0 
 -4.161546e-02  -2.904968e-02  0 
 -3.097170e-02  -2.221583e-02  0 
 -3.282102e-02  -3.015192e-02  0 
 -3.811817e-02  -2.234360e-02  0 
 -4.484726e-02  -2.292693e-02  0 
VECTORS displacement_ITER7 FLOAT
 8.004411e-03  5.741261e-03  0 
 -4.608814e-02  -5.272692e-03  0 
 -7.702481e-03  -6.131251e-03  0 
 -2.008553e-02  -1.145367e-02  0 
 -3.165071e-02  -1.187667e-02  0 
 -4.611117e-02  -1.471809e-02  0 
 -4.613108e-02  -2.417544e-02  0 
 6.334278e-03  1.019678e-02  0 
 -6.533887e-03  1.021018e-02  0 
 -3.634315e-03  -1.345588e-04  0 
 -3.664488e-02  -5.238686e-03  0 
 -2.715159e-02  -5.170827e-03  0 
 -1.761845e-02  -5.095848e-03  0 
 -2.217251e-03  -2.263221e-03  0 
 -1.557309e-02  2.631268e-03  0 
 -6.302386e-03  5.615942e-03  0 
 -1.723223e-02  -8.245795e-05  0 
 -3.439732e-02  -3.856890e-03  0 
 -1.357083e-02  -3.621153e-04  0 
 -8.925252e-03  5.616122e-03  0 
 -1.270690e-02  5.292981e-03  0 
 -6.474383e-03  1.007531e-02  0 
 -2.460269e-02  3.559351e-04  0 
 -2.668077e-02  -4.365253e-03  0 
 -1.576426e-02  -3.752786e-03  0 
 -7.572834e-03  2.780604e-03  0 
 -4.198167e-03  1.998154e-03  0 
 -3.580950e-02  -2.275533e-02  0 
 -2.107562e-02  -1.330590e-02  0 
 -2.361299e-02  -2.428320e-02  0 
 -3.096348e-02  -1.346182e-02  0 
 -4.029658e-02  -1.426261e-02  0 
VECTORS displacement_ITER8 FLOAT
 9.056700e-03  2.068554e-03  0 
 -4.395817e-02  -1.975736e-03  0 
 -7.306292e-03  -5.288889e-03  0 
 -1.997533e-02  -8.163410e-03  0 
 -3.082187e-02  -8.307297e-03  0 
 -4.397854e-02  -1.001296e-02  0 
 -4.399575e-02  -1.806063e-02  0 
 2.547557e-03  8.770196e-03  0 
 -1.029256e-02  8.786093e-03  0 
 -7.100412e-03  1.482716e-03  0 
 -3.592319e-02  -1.944815e-03  0 
 -2.783891e-02  -1.879177e-03  0 
 -1.971525e-02  -1.805136e-03  0 
 -5.985792e-03  -3.660752e-03  0 
 -1.692244e-02  4.419392e-03  0 
 -1.004099e-02  5.781282e-03  0 
 -1.908236e-02  2.118061e-03  0 
 -3.365573e-02  -9.079861e-04  0 
 -1.562170e-02  1.437823e-03  0 
 -1.187538e-02  5.835238e-03  0 
 -1.516009e-02  6.439322e-03  0 
 -9.512026e-03  1.005566e-02  0 
 -2.522699e-02  2.762764e-03  0 
 -2.661158e-02  -1.470581e-03  0 
 -1.769402e-02  -9.383523e-04  0 
 -1.027121e-02  3.723388e-03  0 
 -6.093535e-03  3.222209e-03  0 
 -3.521153e-02  -1.685427e-02  0 
 -2.266640e-02  -8.804143e-03  0 
 -2.483500e-02  -1.815846e-02  0 
 -3.108874e-02  -8.943970e-03  0 
 -3.903104e-02  -9.625029e-03  0 
VECTORS displacement_ITER9 FLOAT
 4.235975e-03  4.513914e-03  0 
 -2.682885e-02  -2.661770e-03  0 
 -6.873673e-03  -5.249347e-03  0 
 -1.412221e-02  -9.898754e-03  0 
 -1.926328e-02  -9.682502e-03  0 
 -2.684166e-02  -5.133326e-03  0 
 -2.685186e-02  -7.611149e-03  0 
 4.804075e-05  6.242422e-03  0 
 -2.343379e-03  6.255266e-03  0 
 7.814667e-03  -1.298117e-03  0 
 -2.435756e-02  -2.638806e-03  0 
 -2.183925e-02  -2.576147e-03  0 
 -1.927482e-02  -2.495407e-03  0 
 -1.538129e-03  3.942280e-03  0 
 -1.059102e-02  -2.460228e-03  0 
 4.746953e-04  -1.099040e-05  0 
 -1.498723e-02  -2.081720e-03  0 
 -2.178192e-02  -4.785821e-03  0 
 -9.984793e-03  -1.456902e-03  0 
 -2.416832e-03  1.713435e-03  0 
 -8.090135e-03  -1.644425e-03  0 
 -4.658770e-03  2.226085e-03  0 
 -1.705520e-02  -3.803720e-03  0 
 -1.735832e-02  -6.554742e-03  0 
 -1.454691e-02  -1.337483e-03  0 
 2.200398e-03  1.663320e-03  0 
 -4.757243e-03  -8.744359e-06  0 
 -2.414147e-02  -7.244288e-03  0 
 -2.023641e-02  -4.719639e-03  0 
 -2.095015e-02  -7.658513e-03  0 
 -2.287118e-02  -4.797342e-03  0 
 -2.531999e-02  -5.010087e-03  0 
VECTORS displacement_ITER10 FLOAT
 -1.155140e-04  4.809119e-03  0 
 -2.226112e-02  -3.446279e-03  0 
 -8.839916e-03  -5.387468e-03  0 
 -1.383898e-02  -1.023914e-02  0 
 -1.690152e-02  -9.955778e-03  0 
 -2.226984e-02  -4.145548e-03  0 
 -2.227571e-02  -4.849175e-03  0 
 -4.232505e-03  3.233642e-03  0 
 -1.939413e-03  3.246419e-03  0 
 4.862852e-03  -4.421020e-03  0 
 -2.156165e-02  -3.427474e-03  0 
 -2.081712e-02  -3.367820e-03  0 
 -2.002561e-02  -3.288400e-03  0 
 -2.702892e-03  5.475510e-03  0 
 -1.037411e-02  -4.936980e-03  0 
 -5.361856e-04  -2.134715e-03  0 
 -1.525100e-02  -3.878878e-03  0 
 -1.914108e-02  -6.133010e-03  0 
 -1.027557e-02  -3.193541e-03  0 
 -3.387331e-03  -5.513702e-04  0 
 -8.744574e-03  -4.154279e-03  0 
 -5.649771e-03  -1.628932e-03  0 
 -1.603429e-02  -5.769970e-03  0 
 -1.578173e-02  -8.134375e-03  0 
 -1.475602e-02  -2.205680e-03  0 
 9.203537e-05  -1.353456e-03  0 
 -6.554237e-03  -1.584029e-03  0 
 -2.150211e-02  -4.750953e-03  0 
 -2.035085e-02  -3.988689e-03  0 
 -2.059979e-02  -4.882550e-03  0 
 -2.114122e-02  -4.045036e-03  0 
 -2.183965e-02  -4.107858e-03  0 
VECTORS displacement_ITER11 FLOAT
 5.751741e-03  5.611835e-03  0 
 -1.906596e-02  2.003355e-03  0 
 -3.277045e-03  -1.872592e-03  0 
 -8.948265e-03  -4.733358e-03  0 
 -1.298808e-02  -4.005650e-03  0 
 -1.907424e-02  5.779038e-04  0 
 -1.907883e-02  -8.523124e-04  0 
 -9.080442e-04  3.846759e-03  0 
 2.901660e-05  3.861589e-03  0 
 2.668335e-04  -1.492924e-03  0 
 -1.764089e-02  2.022074e-03  0 
 -1.617176e-02  2.080630e-03  0 
 -1.465748e-02  2.155603e-03  0 
 -2.790426e-04  4.773242e-03  0 
 -6.709401e-03  7.931091e-04  0 
 -1.520969e-03  2.394630e-03  0 
 -1.137770e-02  2.107720e-03  0 
 -1.543254e-02  1.915077e-04  0 
 -7.522565e-03  2.020741e-03  0 
 -3.686870e-03  3.417830e-03  0 
 -6.978506e-03  2.308467e-03  0 
 -2.995906e-03  2.127113e-03  0 
 -1.249287e-02  1.171673e-03  0 
 -1.181576e-02  -1.722654e-03  0 
 -1.043087e-02  2.983080e-03  0 
 -2.456945e-03  1.020399e-03  0 
 -2.145517e-03  2.222186e-03  0 
 -1.751584e-02  -6.455022e-04  0 
 -1.523911e-02  8.354313e-04  0 
 -1.567621e-02  -8.944100e-04  0 
 -1.678367e-02  7.725827e-04  0 
 -1.819771e-02  6.489795e-04  0 
VECTORS displacement_ITER12 FLOAT
 7.138032e-03  6.967624e-03  0 
 -1.862535e-02  4.504239e-03  0 
 -1.093889e-03  8.660106e-04  0 
 -6.729690e-03  -8.481236e-04  0 
 -1.168147e-02  -2.390080e-04  0 
 -1.863378e-02  1.164103e-03  0 
 -1.863773e-02  -2.181734e-03  0 
 -6.615299e-05  3.525016e-03  0 
 -1.285217e-04  3.539144e-03  0 
 -3.223060e-03  1.063955e-04  0 
 -1.528626e-02  4.523197e-03  0 
 -1.190476e-02  4.580246e-03  0 
 -8.481324e-03  4.649231e-03  0 
 -1.022579e-04  3.477791e-03  0 
 -4.985617e-03  4.793394e-03  0 
 -2.832607e-03  4.669256e-03  0 
 -7.542631e-03  5.565183e-03  0 
 -1.373048e-02  4.104843e-03  0 
 -4.958985e-03  4.670251e-03  0 
 -4.130282e-03  5.225883e-03  0 
 -5.704523e-03  6.369088e-03  0 
 -2.243124e-03  4.417858e-03  0 
 -1.005649e-02  5.754280e-03  0 
 -9.934359e-03  2.708001e-03  0 
 -5.905977e-03  5.070290e-03  0 
 -4.486133e-03  2.128809e-03  0 
 -2.461753e-04  4.694026e-03  0 
 -1.498932e-02  -1.687428e-03  0 
 -9.743691e-03  1.690539e-03  0 
 -1.067845e-02  -2.243318e-03  0 
 -1.327716e-02  1.608582e-03  0 
 -1.657940e-02  1.324453e-03  0 
VECTORS displacement_ITER13 FLOAT
 3.406649e-03  7.502808e-03  0 
 -1.566699e-02  2.739586e-03  0 
 -1.579476e-03  2.136198e-04  0 
 -4.978404e-03  -1.715348e-03  0 
 -9.211575e-03  -1.048584e-03  0 
 -1.567425e-02  -1.349901e-03  0 
 -1.567629e-02  -5.445674e-03  0 
 -1.429839e-03  -8.117512e-04  0 
 -2.106195e-04  -8.028636e-04  0 
 -1.197213e-03  -4.151937e-03  0 
 -1.157856e-02  2.757373e-03  0 
 -7.450217e-03  2.813364e-03  0 
 -3.281112e-03  2.879192e-03  0 
 -6.165801e-04  3.737337e-04  0 
 -3.274967e-03  2.779185e-03  0 
 -1.495055e-03  3.806137e-04  0 
 -3.904079e-03  3.852717e-03  0 
 -1.067158e-02  2.790093e-03  0 
 -2.619165e-03  2.410846e-03  0 
 -3.019894e-03  1.770971e-03  0 
 -3.409638e-03  3.589155e-03  0 
 -1.814131e-03  6.660999e-04  0 
 -6.839031e-03  4.223028e-03  0 
 -7.419780e-03  1.534185e-03  0 
 -2.266975e-03  2.748787e-03  0 
 -3.266337e-03  -1.223152e-03  0 
 2.064210e-04  2.287977e-03  0 
 -1.121430e-02  -4.838636e-03  0 
 -4.808182e-03  -7.193722e-04  0 
 -5.936087e-03  -5.514427e-03  0 
 -9.118996e-03  -8.080376e-04  0 
 -1.315917e-02  -1.155475e-03  0 
VECTORS displacement_ITER14 FLOAT
 3.035904e-03  7.329654e-03  0 
 -1.372856e-02  3.746113e-03  0 
 -1.129493e-03  8.344553e-04  0 
 -4.005441e-03  -6.223237e-04  0 
 -7.867749e-03  2.463783e-04  0 
 -1.373442e-02  1.129204e-04  0 
 -1.373471e-02  -3.526221e-03  0 
 -1.565121e-03  -1.271939e-03  0 
 -6.234798e-04  -1.262836e-03  0 
 -5.646739e-04  -1.768263e-03  0 
 -1.009635e-02  3.762517e-03  0 
 -6.425381e-03  3.817735e-03  0 
 -2.713265e-03  3.883166e-03  0 
 -9.366117e-04  -3.580512e-04  0 
 -2.790949e-03  3.388416e-03  0 
 -1.787547e-03  7.927520e-04  0 
 -3.402518e-03  4.686136e-03  0 
 -9.282413e-03  3.765672e-03  0 
 -2.228611e-03  3.399006e-03  0 
 -2.799647e-03  2.197778e-03  0 
 -3.166415e-03  4.144683e-03  0 
 -1.839062e-03  8.498110e-04  0 
 -5.953189e-03  5.026410e-03  0 
 -6.372050e-03  2.524894e-03  0 
 -1.799847e-03  3.810867e-03  0 
 -2.383445e-03  2.937644e-04  0 
 4.446651e-04  2.513985e-03  0 
 -9.772500e-03  -2.988159e-03  0 
 -4.076025e-03  6.770825e-04  0 
 -5.083835e-03  -3.591273e-03  0 
 -7.911548e-03  5.940899e-04  0 
 -1.150049e-02  2.850336e-04  0 
VECTORS displacement_ITER15 FLOAT
 2.951610e-03  4.804222e-03  0 
 -1.201580e-02  1.861211e-03  0 
 -8.768380e-04  -2.027623e-04  0 
 -3.635356e-03  -1.275188e-03  0 
 -7.086273e-03  -7.419979e-04  0 
 -1.201921e-02  -1.296951e-03  0 
 -1.201646e-02  -4.460316e-03  0 
 -1.475666e-03  -2.301345e-03  0 
 -6.463142e-04  -2.289709e-03  0 
 5.433862e-04  1.990904e-03  0 
 -8.858434e-03  1.875471e-03  0 
 -5.663612e-03  1.930213e-03  0 
 -2.425538e-03  1.996688e-03  0 
 -9.206680e-04  -1.497814e-03  0 
 -2.589776e-03  2.340394e-03  0 
 -1.946096e-03  1.018448e-03  0 
 -2.958188e-03  3.252465e-03  0 
 -8.207933e-03  2.168207e-03  0 
 -1.124212e-03  3.061584e-03  0 
 -1.694612e-03  1.914081e-03  0 
 -2.862372e-03  3.424446e-03  0 
 -1.710382e-03  2.594822e-04  0 
 -5.362624e-03  3.486582e-03  0 
 -5.704955e-03  1.361164e-03  0 
 -8.661637e-04  2.908715e-03  0 
 -3.317899e-04  2.103143e-03  0 
 2.959152e-04  1.439059e-03  0 
 -8.576251e-03  -3.994844e-03  0 
 -3.618854e-03  -8.027674e-04  0 
 -4.502459e-03  -4.522848e-03  0 
 -6.959827e-03  -8.800034e-04  0 
 -1.007835e-02  -1.148808e-03  0 
VECTORS displacement_ITER16 FLOAT
 8.616348e-04  4.163320e-03  0 
 -9.702922e-03  4.041051e-05  0 
 -2.001119e-03  -5.835479e-04  0 
 -3.865337e-03  -2.027027e-03  0 
 -6.160058e-03  -1.921249e-03  0 
 -9.703864e-03  -2.259133e-03  0 
 -9.698440e-03  -4.562845e-03  0 
 -2.497985e-03  -2.044859e-03  0 
 -1.700949e-05  -2.034002e-03  0 
 3.936168e-04  -3.713371e-04  0 
 -7.403823e-03  5.220174e-05  0 
 -5.068377e-03  1.060439e-04  0 
 -2.688075e-03  1.735631e-04  0 
 -8.444952e-04  3.599616e-04  0 
 -2.495290e-03  5.496458e-04  0 
 -1.043042e-03  1.220542e-04  0 
 -2.785108e-03  1.234904e-03  0 
 -6.890179e-03  1.812900e-04  0 
 -8.123457e-04  1.575074e-03  0 
 -1.070821e-03  1.002977e-03  0 
 -2.382278e-03  1.550949e-03  0 
 -1.611937e-03  -9.183487e-04  0 
 -4.683752e-03  1.190252e-03  0 
 -5.017037e-03  -4.153309e-04  0 
 -8.229837e-04  1.257497e-03  0 
 -4.074935e-04  5.627635e-04  0 
 -7.675964e-04  5.706938e-04  0 
 -7.197340e-03  -4.227740e-03  0 
 -3.574349e-03  -1.889410e-03  0 
 -4.233202e-03  -4.619286e-03  0 
 -6.021879e-03  -1.956662e-03  0 
 -8.291901e-03  -2.152781e-03  0 
VECTORS displacement_ITER17 FLOAT
 4.234612e-03  1.287010e-03  0 
 -1.047308e-02  9.148010e-04  0 
 9.094446e-05  -6.805990e-04  0 
 -3.080113e-03  -8.865642e-04  0 
 -6.231744e-03  -8.812847e-04  0 
 -1.047447e-02  -2.003506e-03  0 
 -1.046909e-02  -4.926432e-03  0 
 -4.379416e-04  -9.379270e-04  0 
 2.966607e-04  -9.254579e-04  0 
 -2.238588e-03  -1.025727e-03  0 
 -7.555396e-03  9.275632e-04  0 
 -4.600793e-03  9.825787e-04  0 
 -1.600683e-03  1.050129e-03  0 
 5.537244e-05  -2.246983e-04  0 
 -2.131656e-03  2.134625e-03  0 
 -1.592252e-03  1.816785e-03  0 
 -2.222199e-03  2.601122e-03  0 
 -7.058906e-03  1.544863e-03  0 
 -6.312455e-04  2.768617e-03  0 
 -1.782406e-03  2.553149e-03  0 
 -2.314583e-03  3.655940e-03  0 
 -8.682051e-04  9.556389e-04  0 
 -4.582718e-03  2.937582e-03  0 
 -4.839105e-03  1.142604e-03  0 
 -1.791702e-04  1.975947e-03  0 
 -2.502985e-03  7.101146e-04  0 
 2.216085e-04  1.372911e-03  0 
 -7.293895e-03  -4.498411e-03  0 
 -2.709100e-03  -1.545418e-03  0 
 -3.530366e-03  -4.990095e-03  0 
 -5.801349e-03  -1.619733e-03  0 
 -8.681911e-03  -1.868085e-03  0 
VECTORS displacement_ITER18 FLOAT
 1.981025e-03  1.001314e-03  0 
 -8.800450e-03  2.619666e-04  0 
 -9.164476e-04  -1.249260e-03  0 
 -3.103857e-03  -1.826099e-03  0 
 -5.400869e-03  -1.652907e-03  0 
 -8.800841e-03  -1.870872e-03  0 
 -8.794554e-03  -4.007824e-03  0 
 -6.123846e-04  -8.522131e-04  0 
 4.115047e-04  -8.407310e-04  0 
 -2.652266e-04  -1.075533e-03  0 
 -6.667917e-03  2.735904e-04  0 
 -4.498766e-03  3.282522e-04  0 
 -2.283497e-03  3.970890e-04  0 
 7.316321e-05  1.407409e-04  0 
 -2.187502e-03  5.030835e-04  0 
 -6.434208e-04  6.388545e-04  0 
 -2.349212e-03  1.089731e-03  0 
 -6.163237e-03  3.657517e-04  0 
 -7.234989e-04  1.129758e-03  0 
 -8.559072e-04  1.281518e-03  0 
 -1.946631e-03  1.649283e-03  0 
 -8.297774e-04  -4.788703e-05  0 
 -4.193838e-03  1.208207e-03  0 
 -4.403194e-03  -2.217876e-04  0 
 -8.610301e-04  7.613150e-04  0 
 -8.231614e-04  2.542097e-04  0 
 -4.592657e-04  1.509779e-04  0 
 -6.476524e-03  -3.698015e-03  0 
 -3.111077e-03  -1.524478e-03  0 
 -3.727005e-03  -4.063939e-03  0 
 -5.386434e-03  -1.590333e-03  0 
 -7.491708e-03  -1.772747e-03  0 
VECTORS displacement_ITER19 FLOAT
 -8.828837e-04  1.431775e-03  0 
 -7.622113e-03  -5.857013e-05  0 
 -2.330316e-03  -1.261903e-03  0 
 -3.466116e-03  -2.257319e-03  0 
 -5.013425e-03  -1.908460e-03  0 
 -7.621570e-03  -1.616019e-03  0 
 -7.614481e-03  -3.177154e-03  0 
 -8.871968e-04  -3.414139e-04  0 
 -2.711877e-04  -3.308770e-04  0 
 1.445114e-03  8.493114e-04  0 
 -6.064762e-03  -4.821439e-05  0 
 -4.471433e-03  5.557055e-06  0 
 -2.832334e-03  7.499726e-05  0 
 -4.731491e-04  2.547393e-04  0 
 -2.647232e-03  -4.953587e-04  0 
 -3.981401e-04  3.909631e-05  0 
 -2.530337e-03  -9.833282e-05  0 
 -5.639843e-03  -3.290111e-04  0 
 -9.192101e-04  -3.460037e-04  0 
 -8.534908e-05  1.456638e-04  0 
 -1.903167e-03  8.368972e-05  0 
 -1.268937e-03  -3.134503e-04  0 
 -4.057890e-03  -9.451168e-06  0 
 -4.359288e-03  -9.982761e-04  0 
 -1.624897e-03  -2.343918e-04  0 
 1.054025e-03  7.125190e-04  0 
 -1.402876e-03  -6.047683e-04  0 
 -5.924510e-03  -2.953904e-03  0 
 -3.453435e-03  -1.351831e-03  0 
 -3.918350e-03  -3.227399e-03  0 
 -5.129462e-03  -1.411355e-03  0 
 -6.666560e-03  -1.545326e-03  0 
VECTORS displacement_ITER20 FLOAT
 2.543196e-04  1.673017e-04  0 
 -8.490714e-03  8.672883e-04  0 
 -1.457259e-03  -1.303871e-03  0 
 -3.070076e-03  -1.635790e-03  0 
 -5.196874e-03  -1.129470e-03  0 
 -8.491250e-03  -1.300692e-03  0 
 -8.485079e-03  -3.473173e-03  0 
 2.512848e-04  7.027231e-05  0 
 -5.157524e-04  8.029653e-05  0 
 6.831369e-04  -2.363834e-04  0 
 -6.322977e-03  8.788549e-04  0 
 -4.119298e-03  9.332559e-04  0 
 -1.870446e-03  1.002086e-03  0 
 -2.544989e-04  -6.749362e-04  0 
 -2.569109e-03  3.926220e-04  0 
 -5.400471e-04  3.000553e-04  0 
 -2.114525e-03  9.432709e-04  0 
 -5.931199e-03  7.937855e-04  0 
 -1.133354e-03  2.084980e-04  0 
 -6.170177e-04  6.081304e-04  0 
 -1.773692e-03  1.021138e-03  0 
 -1.019440e-03  5.520557e-04  0 
 -3.994797e-03  1.220890e-03  0 
 -4.395449e-03  8.266065e-05  0 
 -1.481415e-03  2.264794e-04  0 
 6.264333e-05  3.779515e-04  0 
 -9.314343e-04  -3.864697e-04  0 
 -6.128912e-03  -3.157244e-03  0 
 -2.709506e-03  -9.486671e-04  0 
 -3.333553e-03  -3.528278e-03  0 
 -5.020574e-03  -1.014898e-03  0 
 -7.160374e-03  -1.200790e-03  0 
VECTORS displacement_ITER21 FLOAT
 8.074847e-04  -5.625045e-04  0 
 -8.755675e-03  1.139653e-03  0 
 -1.096820e-03  -1.346736e-03  0 
 -2.973200e-03  -1.437311e-03  0 
 -5.278092e-03  -9.188930e-04  0 
 -8.756454e-03  -1.117223e-03  0 
 -8.750462e-03  -3.378826e-03  0 
 9.715904e-04  7.410763e-04  0 
 -1.486247e-04  7.513738e-04  0 
 -2.125396e-04  -9.202698e-04  0 
 -6.499069e-03  1.151500e-03  0 
 -4.206932e-03  1.205796e-03  0 
 -1.869530e-03  1.274437e-03  0 
 2.315187e-04  -3.456132e-04  0 
 -2.538740e-03  6.930426e-04  0 
 -5.424432e-04  8.708631e-04  0 
 -2.192063e-03  1.379611e-03  0 
 -6.076728e-03  1.119356e-03  0 
 -1.431715e-03  6.337871e-04  0 
 -9.507204e-04  1.208682e-03  0 
 -1.804306e-03  1.602149e-03  0 
 -6.890566e-04  1.135909e-03  0 
 -4.106373e-03  1.632130e-03  0 
 -4.437804e-03  3.921397e-04  0 
 -1.721758e-03  5.093293e-04  0 
 -8.260713e-04  2.357847e-04  0 
 -7.829393e-04  -2.522019e-04  0 
 -6.297367e-03  -3.049164e-03  0 
 -2.740101e-03  -7.527175e-04  0 
 -3.386665e-03  -3.434442e-03  0 
 -5.143318e-03  -8.194018e-04  0 
 -7.370838e-03  -1.013012e-03  0 
VECTORS displacement_ITER22 FLOAT
 -9.780488e-04  -3.374836e-04  0 
 -7.122627e-03  2.113303e-05  0 
 -2.090504e-03  -1.748535e-03  0 
 -3.207646e-03  -2.445242e-03  0 
 -4.642214e-03  -1.972874e-03  0 
 -7.121967e-03  -1.248641e-03  0 
 -7.114743e-03  -2.522250e-03  0 
 6.147158e-04  1.024611e-03  0 
 6.111066e-04  1.035337e-03  0 
 5.662557e-04  -3.628553e-04  0 
 -5.852824e-03  3.122003e-05  0 
 -4.548897e-03  8.359871e-05  0 
 -3.199274e-03  1.522328e-04  0 
 6.180004e-04  1.021620e-03  0 
 -2.568321e-03  -8.508258e-04  0 
 5.743729e-06  6.088267e-04  0 
 -2.789329e-03  -9.690254e-05  0 
 -5.365502e-03  -4.014767e-04  0 
 -1.733607e-03  -4.336518e-04  0 
 -4.227433e-04  6.813780e-04  0 
 -1.822931e-03  1.577322e-04  0 
 -5.156585e-04  2.968219e-04  0 
 -4.043810e-03  -1.792039e-04  0 
 -4.139334e-03  -1.191170e-03  0 
 -2.591415e-03  -4.227499e-04  0 
 4.589359e-06  2.639215e-04  0 
 -1.412594e-03  -1.104277e-03  0 
 -5.738910e-03  -2.341361e-03  0 
 -3.715775e-03  -1.026686e-03  0 
 -4.102688e-03  -2.568544e-03  0 
 -5.090902e-03  -1.081079e-03  0 
 -6.343924e-03  -1.191421e-03  0 
VECTORS displacement_ITER23 FLOAT
 -7.729059e-04  -1.131720e-03  0 
 -6.457329e-03  -5.086126e-04  0 
 -1.870058e-03  -2.128556e-03  0 
 -2.974281e-03  -2.640496e-03  0 
 -4.295041e-03  -2.208628e-03  0 
 -6.456012e-03  -1.586733e-03  0 
 -6.448237e-03  -2.668226e-03  0 
 6.198084e-04  4.931411e-04  0 
 2.294207e-04  5.044680e-04  0 
 5.326196e-04  6.662466e-04  0 
 -5.379192e-03  -4.994860e-04  0 
 -4.268238e-03  -4.490795e-04  0 
 -3.112520e-03  -3.824088e-04  0 
 3.660084e-04  1.146171e-04  0 
 -2.510288e-03  -1.168408e-03  0 
 -4.789745e-04  3.825216e-04  0 
 -2.760687e-03  -6.587653e-04  0 
 -4.947192e-03  -8.385508e-04  0 
 -1.896515e-03  -1.041298e-03  0 
 -6.982278e-04  2.365495e-04  0 
 -2.001065e-03  -2.677449e-04  0 
 -6.817113e-04  -9.421421e-06  0 
 -3.840241e-03  -6.164525e-04  0 
 -3.873257e-03  -1.497293e-03  0 
 -2.647141e-03  -1.054465e-03  0 
 4.901416e-05  5.973720e-04  0 
 -1.367264e-03  -1.477688e-03  0 
 -5.281863e-03  -2.516561e-03  0 
 -3.558423e-03  -1.394614e-03  0 
 -3.893051e-03  -2.713411e-03  0 
 -4.732471e-03  -1.445117e-03  0 
 -5.796007e-03  -1.538891e-03  0 
VECTORS displacement_ITER24 FLOAT
 -1.204782e-04  -1.496017e-03  0 
 -6.452639e-03  -7.232000e-04  0 
 -1.440099e-03  -2.157348e-03  0 
 -2.753652e-03  -2.439676e-03  0 
 -4.255936e-03  -2.101043e-03  0 
 -6.451126e-03  -1.994462e-03  0 
 -6.443160e-03  -3.268935e-03  0 
 7.034624e-04  7.479161e-05  0 
 -1.727781e-04  8.649705e-05  0 
 -1.163149e-04  1.027464e-03  0 
 -5.181472e-03  -7.144142e-04  0 
 -3.878400e-03  -6.652810e-04  0 
 -2.531152e-03  -6.003815e-04  0 
 1.264650e-04  -7.755429e-04  0 
 -2.402550e-03  -8.601726e-04  0 
 -1.049954e-03  4.496325e-04  0 
 -2.507219e-03  -5.941691e-04  0 
 -4.834671e-03  -7.722396e-04  0 
 -1.898478e-03  -1.003561e-03  0 
 -1.168307e-03  2.413453e-04  0 
 -2.116190e-03  2.045440e-05  0 
 -8.027072e-04  8.881697e-05  0 
 -3.675621e-03  -3.787292e-04  0 
 -3.745999e-03  -1.248021e-03  0 
 -2.311986e-03  -1.214625e-03  0 
 -5.089766e-04  7.731677e-04  0 
 -1.106006e-03  -1.373657e-03  0 
 -5.066435e-03  -3.088629e-03  0 
 -3.044694e-03  -1.777108e-03  0 
 -3.427962e-03  -3.317123e-03  0 
 -4.418459e-03  -1.828136e-03  0 
 -5.672347e-03  -1.937755e-03  0 
VECTORS displacement_ITER25 FLOAT
 -1.141861e-03  -5.277323e-04  0 
 -5.127309e-03  -1.261038e-03  0 
 -1.914648e-03  -2.062882e-03  0 
 -2.637384e-03  -2.786099e-03  0 
 -3.588706e-03  -2.481914e-03  0 
 -5.124666e-03  -1.945120e-03  0 
 -5.115674e-03  -2.631653e-03  0 
 2.340563e-05  -3.703413e-04  0 
 1.454667e-04  -3.585848e-04  0 
 -7.489726e-05  6.887212e-04  0 
 -4.443146e-03  -1.253514e-03  0 
 -3.728230e-03  -1.205903e-03  0 
 -2.968075e-03  -1.141249e-03  0 
 1.102425e-04  -2.529325e-04  0 
 -2.153806e-03  -1.546779e-03  0 
 -8.988232e-04  3.104635e-05  0 
 -2.651847e-03  -1.161378e-03  0 
 -4.090829e-03  -1.473271e-03  0 
 -1.962912e-03  -1.240172e-03  0 
 -1.078926e-03  -1.270827e-04  0 
 -2.061041e-03  -6.615219e-04  0 
 -7.879828e-04  -7.059455e-04  0 
 -3.343844e-03  -1.181185e-03  0 
 -3.271926e-03  -1.947544e-03  0 
 -2.515166e-03  -1.387362e-03  0 
 -4.392844e-04  4.103433e-04  0 
 -1.247347e-03  -1.654671e-03  0 
 -4.379921e-03  -2.540489e-03  0 
 -3.270885e-03  -1.814263e-03  0 
 -3.498573e-03  -2.676396e-03  0 
 -4.033226e-03  -1.856761e-03  0 
 -4.707408e-03  -1.916575e-03  0 
VECTORS displacement_ITER26 FLOAT
 -6.150504e-04  -2.946167e-04  0 
 -4.360629e-03  -1.318981e-03  0 
 -1.524774e-03  -1.799078e-03  0 
 -2.254394e-03  -2.505460e-03  0 
 -3.073027e-03  -2.331044e-03  0 
 -4.357424e-03  -1.841507e-03  0 
 -4.347939e-03  -2.365986e-03  0 
 -1.098313e-04  -4.784717e-04  0 
 4.082620e-04  -4.661847e-04  0 
 -1.525773e-04  6.484798e-04  0 
 -3.837900e-03  -1.312016e-03  0 
 -3.285381e-03  -1.265664e-03  0 
 -2.686781e-03  -1.201771e-03  0 
 2.403566e-04  2.335524e-05  0 
 -1.735438e-03  -1.388625e-03  0 
 -7.531681e-04  1.225363e-04  0 
 -2.346688e-03  -1.044914e-03  0 
 -3.504538e-03  -1.472369e-03  0 
 -1.630341e-03  -9.121608e-04  0 
 -9.264367e-04  1.429489e-05  0 
 -1.786081e-03  -5.065587e-04  0 