# vtk DataFile Version 3.1
this is an vtk file created by FEMAC
ASCII
DATASET UNSTRUCTURED_GRID
POINTS 32 FLOAT
0.000000 5.000000 0.000000
0.000000 6.000000 0.000000
0.250000 5.000000 0.000000
0.500000 5.000000 0.000000
0.750000 5.000000 0.000000
0.000000 4.500000 0.000000
0.000000 4.750000 0.000000
0.250000 6.000000 0.000000
0.500000 6.000000 0.000000
0.750000 6.000000 0.000000
0.000000 5.250000 0.000000
0.000000 5.500000 0.000000
0.000000 5.750000 0.000000
0.272476 4.537430 0.000000
0.660302 4.785301 0.000000
0.825957 4.628272 0.000000
0.594871 4.497465 0.000000
0.400442 4.782533 0.000000
0.847252 4.832715 0.000000
0.153820 4.761660 0.000000
0.272476 5.537430 0.000000
0.660302 5.785301 0.000000
0.660045 5.212404 0.000000
0.162952 5.171693 0.000000
0.825570 5.361866 0.000000
0.825957 5.628272 0.000000
0.594871 5.497465 0.000000
0.400442 5.782533 0.000000
0.372389 5.253823 0.000000
0.165804 5.339408 0.000000
0.847123 5.164854 0.000000
0.153820 5.761660 0.000000
CELLS 43 172 
3 3 14  4
3 17 14  3
3 16 17 13
3 16 14 17
3 2 17  3
3 16 15 14
3 18  4 14
3 14 15 18
3 19  2  0
3 6 19  0
3 5 19  6
3 17 19 13
3 19 17  2
3 5 13 19
3 8 21  9
3 22  3  4
3 2 23  0
3 23 10  0
3 26 22 24
3 27 21  8
3 22 28  3
3 26 27 20
3 26 21 27
3 28 26 20
3 22 26 28
3 28  2  3
3 23  2 28
3 7 27  8
3 26 25 21
3 24 25 26
3 23 29 10
3 4 30 22
3 29 28 20
3 23 28 29
3 24 22 30
3 29 11 10
3 11 29 20
3 31  7  1
3 12 31  1
3 11 31 12
3 27 31 20
3 31 27  7
3 11 20 31
CELL_TYPES 43
5 5 5 5 5 5 5 5 5 5 5 5 5 5 5 5 5 5 5 5 5 5 5 5 5 5 5 5 5 5 5 5 5 5 5 5 5 5 5 5 5 5 5 
POINT_DATA 32
VECTORS displacement_ITER1 FLOAT
 0  0  0 
 0  0  0 
 4.682181e-05  -3.220074e-05  0 
 9.436025e-05  -9.602819e-05  0 
 1.444139e-04  -2.193125e-04  0 
 0  0  0 
 0  0  0 
 3.808501e-02  -3.552526e-02  0 
 7.915524e-02  -6.561458e-02  0 
 1.303428e-01  -1.219763e-01  0 
 0  0  0 
 0  0  0 
 0  0  0 
 -2.555862e-05  -2.098692e-05  0 
 3.244228e-05  -1.358986e-04  0 
 -1.912376e-05  -1.935344e-04  0 
 -5.631778e-05  -1.076563e-04  0 
 2.048904e-05  -4.326368e-05  0 
 7.439688e-05  -2.356750e-04  0 
 4.283869e-06  4.419453e-06  0 
 1.194034e-02  -1.382986e-03  0 
 6.498363e-02  -5.723813e-02  0 
 1.515861e-02  -9.591928e-03  0 
 2.463149e-03  2.280520e-03  0 
 3.535162e-02  -3.369298e-02  0 
 6.460690e-02  -5.919466e-02  0 
 3.006844e-02  -2.019325e-02  0 
 3.609468e-02  -2.467489e-02  0 
 6.640947e-03  1.877715e-03  0 
 3.532733e-03  2.514795e-03  0 
 2.382217e-02  -2.396967e-02  0 
 9.133782e-03  -2.642069e-03  0 
VECTORS displacement_ITER2 FLOAT
 0  0  0 
 0  0  0 
 5.047435e-05  -3.413540e-05  0 
 1.019931e-04  -1.018415e-04  0 
 1.544062e-04  -2.311179e-04  0 
 0  0  0 
 0  0  0 
 3.457001e-02  -3.223974e-02  0 
 7.185299e-02  -5.885240e-02  0 
 1.183063e-01  -1.081553e-01  0 
 0  0  0 
 0  0  0 
 0  0  0 
 -2.850114e-05  -2.264227e-05  0 
 3.376174e-05  -1.463962e-04  0 
 -2.584022e-05  -2.141881e-04  0 
 -6.439104e-05  -1.184149e-04  0 
 2.189477e-05  -4.564467e-05  0 
 7.697404e-05  -2.554859e-04  0 
 4.562052e-06  5.265331e-06  0 
 1.126454e-02  -9.899685e-04  0 
 5.978020e-02  -5.055761e-02  0 
 1.454326e-02  -8.147646e-03  0 
 2.466245e-03  2.287694e-03  0 
 3.318424e-02  -2.944315e-02  0 
 5.968205e-02  -5.206255e-02  0 
 2.824224e-02  -1.744350e-02  0 
 3.323679e-02  -2.198277e-02  0 
 6.588540e-03  2.127953e-03  0 
 3.450842e-03  2.475086e-03  0 
 2.250979e-02  -2.104691e-02  0 
 8.439692e-03  -2.398676e-03  0 
VECTORS displacement_ITER3 FLOAT
 0  0  0 
 0  0  0 
 6.183328e-05  -4.308362e-05  0 
 1.248443e-04  -1.245549e-04  0 
 1.855184e-04  -2.737613e-04  0 
 0  0  0 
 0  0  0 
 2.912430e-02  -2.733131e-02  0 
 6.038313e-02  -4.914779e-02  0 
 9.914986e-02  -8.862307e-02  0 
 0  0  0 
 0  0  0 
 0  0  0 
 -3.588747e-05  -2.819811e-05  0 
 4.128026e-05  -1.796841e-04  0 
 -3.717657e-05  -2.704044e-04  0 
 -8.252675e-05  -1.483963e-04  0 
 2.721322e-05  -5.601079e-05  0 
 9.110671e-05  -3.136214e-04  0 
 5.524160e-06  6.394378e-06  0 
 9.956295e-03  -7.517483e-04  0 
 5.110500e-02  -4.157775e-02  0 
 1.331890e-02  -6.429231e-03  0 
 2.333964e-03  2.126896e-03  0 
 2.944989e-02  -2.389405e-02  0 
 5.145392e-02  -4.241986e-02  0 
 2.492573e-02  -1.411694e-02  0 
 2.845271e-02  -1.842680e-02  0 
 6.213666e-03  2.130214e-03  0 
 3.173096e-03  2.207865e-03  0 
 2.028790e-02  -1.725710e-02  0 
 7.254538e-03  -2.145411e-03  0 
VECTORS displacement_ITER4 FLOAT
 0  0  0 
 0  0  0 
 6.811659e-05  -4.787323e-05  0 
 1.383142e-04  -1.345201e-04  0 
 2.051094e-04  -2.907525e-04  0 
 0  0  0 
 0  0  0 
 2.533765e-02  -2.389674e-02  0 
 5.242704e-02  -4.259544e-02  0 
 8.589855e-02  -7.587287e-02  0 
 0  0  0 
 0  0  0 
 0  0  0 
 -3.734492e-05  -2.817475e-05  0 
 4.940326e-05  -1.919349e-04  0 
 -3.849479e-05  -2.939276e-04  0 
 -8.750331e-05  -1.584377e-04  0 
 3.227922e-05  -5.900864e-05  0 
 1.038266e-04  -3.374513e-04  0 
 6.568191e-06  7.330468e-06  0 
 8.900175e-03  -6.494986e-04  0 
 4.481870e-02  -3.574294e-02  0 
 1.216713e-02  -5.408381e-03  0 
 2.162374e-03  1.943563e-03  0 
 2.643139e-02  -2.038989e-02  0 
 4.536957e-02  -3.624201e-02  0 
 2.227926e-02  -1.205716e-02  0 
 2.497354e-02  -1.604738e-02  0 
 5.752988e-03  2.000165e-03  0 
 2.896325e-03  1.966842e-03  0 
 1.838527e-02  -1.483214e-02  0 
 6.382153e-03  -1.952366e-03  0 
VECTORS displacement_ITER5 FLOAT
 0  0  0 
 0  0  0 
 7.660324e-05  -5.429258e-05  0 
 1.579915e-04  -1.434907e-04  0 
 2.360861e-04  -3.018333e-04  0 
 0  0  0 
 0  0  0 
 1.932528e-02  -1.843853e-02  0 
 3.980026e-02  -3.264529e-02  0 
 6.488686e-02  -5.731945e-02  0 
 0  0  0 
 0  0  0 
 0  0  0 
 -3.421025e-05  -2.235704e-05  0 
 6.812375e-05  -1.969343e-04  0 
 -3.012762e-05  -3.107486e-04  0 
 -8.409717e-05  -1.593931e-04  0 
 4.319950e-05  -5.816841e-05  0 
 1.307537e-04  -3.536380e-04  0 
 8.950909e-06  9.048568e-06  0 
 6.937325e-03  -6.544332e-04  0 
 3.431442e-02  -2.738566e-02  0 
 9.796196e-03  -4.163034e-03  0 
 1.735344e-03  1.505158e-03  0 
 2.087784e-02  -1.558630e-02  0 
 3.500850e-02  -2.754104e-02  0 
 1.743274e-02  -9.362609e-03  0 
 1.913728e-02  -1.252702e-02  0 
 4.641620e-03  1.510973e-03  0 
 2.293289e-03  1.458146e-03  0 
 1.474108e-02  -1.145412e-02  0 
 4.898720e-03  -1.638761e-03  0 
VECTORS displacement_ITER6 FLOAT
 0  0  0 
 0  0  0 
 8.487598e-05  -6.131770e-05  0 
 1.771140e-04  -1.527383e-04  0 
 2.667981e-04  -3.125335e-04  0 
 0  0  0 
 0  0  0 
 1.498095e-02  -1.464105e-02  0 
 3.055062e-02  -2.614460e-02  0 
 4.929698e-02  -4.567427e-02  0 
 0  0  0 
 0  0  0 
 0  0  0 
 -2.964631e-05  -1.576866e-05  0 
 8.872557e-05  -2.000216e-04  0 
 -1.680263e-05  -3.214617e-04  0 
 -7.658933e-05  -1.568352e-04  0 
 5.481197e-05  -5.738830e-05  0 
 1.605882e-04  -3.655978e-04  0 
 1.148036e-05  1.035120e-05  0 
 5.267694e-03  -9.801933e-04  0 
 2.615471e-02  -2.258350e-02  0 
 7.789815e-03  -3.727718e-03  0 
 1.293824e-03  1.030888e-03  0 
 1.645933e-02  -1.305330e-02  0 
 2.694242e-02  -2.254428e-02  0 
 1.344819e-02  -8.249366e-03  0 
 1.458780e-02  -1.051716e-02  0 
 3.547400e-03  8.104363e-04  0 
 1.712145e-03  9.081572e-04  0 
 1.187408e-02  -9.667840e-03  0 
 3.723982e-03  -1.511192e-03  0 
VECTORS displacement_ITER7 FLOAT
 0  0  0 
 0  0  0 
 9.181720e-05  -6.681724e-05  0 
 1.940724e-04  -1.573007e-04  0 
 2.950091e-04  -3.139607e-04  0 
 0  0  0 
 0  0  0 
 1.036290e-02  -1.054487e-02  0 
 2.076949e-02  -1.900869e-02  0 
 3.289196e-02  -3.277879e-02  0 
 0  0  0 
 0  0  0 
 0  0  0 
 -2.290419e-05  -6.766416e-06  0 
 1.102455e-04  -1.957324e-04  0 
 -2.072395e-07  -3.219748e-04  0 
 -6.475005e-05  -1.474277e-04  0 
 6.686081e-05  -5.355710e-05  0 
 1.907909e-04  -3.664829e-04  0 
 1.417808e-05  1.185670e-05  0 
 3.561757e-03  -1.215288e-03  0 
 1.765105e-02  -1.708404e-02  0 
 5.714918e-03  -3.116832e-03  0 
 8.604109e-04  5.743476e-04  0 
 1.184230e-02  -1.006648e-02  0 
 1.852327e-02  -1.683731e-02  0 
 9.334804e-03  -6.794630e-03  0 
 9.850049e-03  -8.195096e-03  0 
 2.458420e-03  1.752773e-04  0 
 1.134268e-03  3.833386e-04  0 
 8.853378e-03  -7.554665e-03  0 
 2.505420e-03  -1.334891e-03  0 
VECTORS displacement_ITER8 FLOAT
 0  0  0 
 0  0  0 
 9.589562e-05  -7.003775e-05  0 
 2.039099e-04  -1.602771e-04  0 
 3.111723e-04  -3.154861e-04  0 
 0  0  0 
 0  0  0 
 7.593329e-03  -8.055889e-03  0 
 1.493149e-02  -1.462075e-02  0 
 2.314512e-02  -2.481757e-02  0 
 0  0  0 
 0  0  0 
 0  0  0 
 -1.938232e-05  -1.970955e-06  0 
 1.222126e-04  -1.941272e-04  0 
 8.486408e-06  -3.237687e-04  0 
 -5.874110e-05  -1.430636e-04  0 
 7.361029e-05  -5.168127e-05  0 
 2.075738e-04  -3.682736e-04  0 
 1.568751e-05  1.271245e-05  0 
 2.566962e-03  -1.301868e-03  0 
 1.262674e-02  -1.360021e-02  0 
 4.484284e-03  -2.685485e-03  0 
 6.152960e-04  3.207380e-04  0 
 9.090584e-03  -8.142010e-03  0 
 1.353496e-02  -1.323654e-02  0 
 6.913094e-03  -5.794312e-03  0 
 7.052233e-03  -6.709994e-03  0 
 1.833849e-03  -1.571398e-04  0 
 8.043835e-04  9.627595e-05  0 
 7.034584e-03  -6.189713e-03  0 
 1.787978e-03  -1.206978e-03  0 
VECTORS displacement_ITER9 FLOAT
 0  0  0 
 0  0  0 
 1.014342e-04  -7.444832e-05  0 
 2.173573e-04  -1.638809e-04  0 
 3.334725e-04  -3.162717e-04  0 
 0  0  0 
 0  0  0 
 4.118590e-03  -4.902708e-03  0 
 7.633789e-03  -9.130824e-03  0 
 1.100686e-02  -1.504623e-02  0 
 0  0  0 
 0  0  0 
 0  0  0 
 -1.389189e-05  5.199663e-06  0 
 1.394936e-04  -1.906036e-04  0 
 2.198993e-05  -3.239918e-04  0 
 -4.900829e-05  -1.354838e-04  0 
 8.328935e-05  -4.866967e-05  0 
 2.317044e-04  -3.686623e-04  0 
 1.786732e-05  1.387134e-05  0 
 1.273014e-03  -1.403578e-03  0 
 6.260553e-03  -9.288028e-03  0 
 2.817599e-03  -2.181019e-03  0 
 2.827750e-04  -1.671766e-05  0 
 5.463081e-03  -5.798045e-03  0 
 7.155855e-03  -8.835417e-03  0 
 3.754233e-03  -4.568320e-03  0 
 3.503412e-03  -4.827597e-03  0 
 9.814495e-04  -6.022738e-04  0 
 3.649072e-04  -2.709102e-04  0 
 4.590486e-03  -4.508081e-03  0 
 8.754443e-04  -1.024789e-03  0 
VECTORS displacement_ITER10 FLOAT
 0  0  0 
 0  0  0 
 1.068870e-04  -7.856833e-05  0 
 2.302313e-04  -1.684319e-04  0 
 3.546812e-04  -3.206634e-04  0 
 0  0  0 
 0  0  0 
 2.536585e-03  -3.380146e-03  0 
 4.387131e-03  -6.593851e-03  0 
 5.733855e-03  -1.091716e-02  0 
 0  0  0 
 0  0  0 
 0  0  0 
 -9.707142e-06  1.086440e-05  0 
 1.545205e-04  -1.899257e-04  0 
 3.296852e-05  -3.274950e-04  0 
 -4.179928e-05  -1.309682e-04  0 
 9.175240e-05  -4.682809e-05  0 
 2.532057e-04  -3.730352e-04  0 
 1.978401e-05  1.494997e-05  0 
 6.024264e-04  -1.400121e-03  0 
 3.276097e-03  -7.331460e-03  0 
 1.798090e-03  -1.994726e-03  0 
 8.670823e-05  -2.009106e-04  0 
 3.436710e-03  -4.804943e-03  0 
 4.027433e-03  -6.974236e-03  0 
 2.081786e-03  -3.992110e-03  0 
 1.832626e-03  -3.868867e-03  0 
 4.616553e-04  -8.374649e-04  0 
 1.200161e-04  -4.364073e-04  0 
 3.114811e-03  -3.753365e-03  0 
 4.418776e-04  -8.803687e-04  0 
VECTORS displacement_ITER11 FLOAT
 0  0  0 
 0  0  0 
 1.109816e-04  -8.135619e-05  0 
 2.393417e-04  -1.732045e-04  0 
 3.687785e-04  -3.281562e-04  0 
 0  0  0 
 0  0  0 
 1.666063e-03  -2.407308e-03  0 
 2.717222e-03  -4.721985e-03  0 
 3.213167e-03  -7.607484e-03  0 
 0  0  0 
 0  0  0 
 0  0  0 
 -8.827626e-06  1.274823e-05  0 
 1.622724e-04  -1.940633e-04  0 
 3.600604e-05  -3.372081e-04  0 
 -4.124580e-05  -1.331873e-04  0 
 9.634423e-05  -4.716652e-05  0 
 2.646788e-04  -3.831481e-04  0 
 2.082507e-05  1.571964e-05  0 
 3.659949e-04  -1.162608e-03  0 
 1.976635e-03  -5.432812e-03  0 
 1.320336e-03  -1.604259e-03  0 
 4.857957e-05  -2.115113e-04  0 
 2.429234e-03  -3.667020e-03  0 
 2.594999e-03  -5.152271e-03  0 
 1.381900e-03  -3.112359e-03  0 
 1.111318e-03  -2.941597e-03  0 
 3.135399e-04  -7.514958e-04  0 
 6.322517e-05  -4.059641e-04  0 
 2.301343e-03  -2.909094e-03  0 
 2.642180e-04  -7.085576e-04  0 
VECTORS displacement_ITER12 FLOAT
 0  0  0 
 0  0  0 
 1.163403e-04  -8.537605e-05  0 
 2.501110e-04  -1.831629e-04  0 
 3.838920e-04  -3.468568e-04  0 
 0  0  0 
 0  0  0 
 1.208880e-03  -1.789825e-03  0 
 1.932131e-03  -3.331166e-03  0 
 2.189071e-03  -4.932759e-03  0 
 0  0  0 
 0  0  0 
 0  0  0 
 -1.129078e-05  1.091647e-05  0 
 1.670481e-04  -2.079772e-04  0 
 3.314410e-05  -3.605015e-04  0 
 -4.746343e-05  -1.451627e-04  0 
 9.947447e-05  -5.146046e-05  0 
 2.729760e-04  -4.077405e-04  0 
 2.148177e-05  1.625148e-05  0 
 3.658998e-04  -8.411496e-04  0 
 1.600612e-03  -3.723359e-03  0 
 1.170647e-03  -1.152066e-03  0 
 9.460034e-05  -1.373736e-04  0 
 2.032300e-03  -2.554725e-03  0 
 2.116555e-03  -3.492136e-03  0 
 1.230602e-03  -2.168072e-03  0 
 9.104797e-04  -2.120758e-03  0 
 3.708172e-04  -5.205546e-04  0 
 1.064876e-04  -2.867973e-04  0 
 1.911168e-03  -2.100296e-03  0 
 2.259350e-04  -5.458693e-04  0 
VECTORS displacement_ITER13 FLOAT
 0  0  0 
 0  0  0 
 1.240980e-04  -9.188626e-05  0 
 2.646895e-04  -2.010473e-04  0 
 4.029566e-04  -3.813997e-04  0 
 0  0  0 
 0  0  0 
 9.362386e-04  -1.372907e-03  0 
 1.505541e-03  -2.195780e-03  0 
 1.711821e-03  -2.471082e-03  0 
 0  0  0 
 0  0  0 
 0  0  0 
 -1.756315e-05  4.768425e-06  0 
 1.700337e-04  -2.349957e-04  0 
 2.449224e-05  -4.019291e-04  0 
 -6.129919e-05  -1.694424e-04  0 
 1.018224e-04  -6.109613e-05  0 
 2.801643e-04  -4.520172e-04  0 
 2.187546e-05  1.646068e-05  0 
 4.959634e-04  -5.164452e-04  0 
 1.651611e-03  -2.140876e-03  0 
 1.264214e-03  -6.794318e-04  0 
 1.925153e-04  -2.118120e-05  0 
 2.044431e-03  -1.464063e-03  0 
 2.133661e-03  -1.896455e-03  0 
 1.402377e-03  -1.236135e-03  0 
 9.529807e-04  -1.409826e-03  0 
 5.645567e-04  -2.290955e-04  0 
 2.082526e-04  -1.374742e-04  0 
 1.848512e-03  -1.334959e-03  0 
 2.538838e-04  -4.169290e-04  0 
VECTORS displacement_ITER14 FLOAT
 0  0  0 
 0  0  0 
 1.266732e-04  -9.405978e-05  0 
 2.692485e-04  -2.076044e-04  0 
 4.083697e-04  -3.942554e-04  0 
 0  0  0 
 0  0  0 
 6.340238e-04  -9.989808e-04  0 
 9.566393e-04  -1.278933e-03  0 
 9.347089e-04  -5.322062e-04  0 
 0  0  0 
 0  0  0 
 0  0  0 
 -2.049955e-05  1.697676e-06  0 
 1.696619e-04  -2.458290e-04  0 
 1.961138e-05  -4.185686e-04  0 
 -6.769049e-05  -1.798414e-04  0 
 1.019400e-04  -6.510355e-05  0 
 2.805963e-04  -4.692297e-04  0 
 2.185720e-05  1.644257e-05  0 
 5.355200e-04  -3.191106e-04  0 
 1.450778e-03  -9.839165e-04  0 
 1.281891e-03  -3.541283e-04  0 
 2.446611e-04  4.355521e-05  0 
 1.949063e-03  -6.797111e-04  0 
 1.923925e-03  -7.135203e-04  0 
 1.411416e-03  -6.037222e-04  0 
 8.501800e-04  -9.002293e-04  0 
 6.643356e-04  -5.647105e-05  0 
 2.588568e-04  -5.613961e-05  0 
 1.749139e-03  -7.840396e-04  0 
 2.383268e-04  -3.337192e-04  0 
VECTORS displacement_ITER15 FLOAT
 0  0  0 
 0  0  0 
 1.310007e-04  -9.822516e-05  0 
 2.773641e-04  -2.174183e-04  0 
 4.192171e-04  -4.115266e-04  0 
 0  0  0 
 0  0  0 
 5.106817e-04  -8.030935e-04  0 
 7.705193e-04  -9.068835e-04  0 
 7.453111e-04  2.211229e-05  0 
 0  0  0 
 0  0  0 
 0  0  0 
 -2.270985e-05  -8.976773e-07  0 
 1.732403e-04  -2.589306e-04  0 
 1.820418e-05  -4.377949e-04  0 
 -7.226109e-05  -1.907608e-04  0 
 1.041756e-04  -7.020389e-05  0 
 2.869796e-04  -4.902517e-04  0 
 2.229508e-05  1.631662e-05  0 
 4.981116e-04  -2.229217e-04  0 
 1.301421e-03  -5.567156e-04  0 
 1.135099e-03  -2.654355e-04  0 
 2.373037e-04  4.616794e-05  0 
 1.686981e-03  -4.336015e-04  0 
 1.693201e-03  -3.533582e-04  0 
 1.268325e-03  -3.649332e-04  0 
 7.664264e-04  -6.539505e-04  0 
 6.232625e-04  -1.869526e-05  0 
 2.503042e-04  -2.948429e-05  0 
 1.498071e-03  -5.906544e-04  0 
 2.186037e-04  -2.692813e-04  0 
VECTORS displacement_ITER16 FLOAT
 0  0  0 
 0  0  0 
 1.314119e-04  -9.870422e-05  0 
 2.784527e-04  -2.165710e-04  0 
 4.214061e-04  -4.079090e-04  0 
 0  0  0 
 0  0  0 
 7.526741e-04  -8.692781e-04  0 
 1.412562e-03  -1.140181e-03  0 
 2.036197e-03  -9.183652e-04  0 
 0  0  0 
 0  0  0 
 0  0  0 
 -2.056705e-05  9.919240e-07  0 
 1.768555e-04  -2.554714e-04  0 
 2.301489e-05  -4.329203e-04  0 
 -6.772892e-05  -1.866478e-04  0 
 1.061283e-04  -6.901750e-05  0 
 2.914878e-04  -4.851781e-04  0 
 2.279261e-05  1.630737e-05  0 
 4.969374e-04  -9.494919e-05  0 
 1.688485e-03  -7.024619e-04  0 
 8.923729e-04  -2.962883e-04  0 
 2.093362e-04  4.663927e-05  0 
 1.424874e-03  -5.754508e-04  0 
 1.873718e-03  -6.992642e-04  0 
 1.195509e-03  -3.076223e-04  0 
 9.728778e-04  -5.573565e-04  0 
 5.195490e-04  1.390670e-05  0 
 2.312875e-04  2.497727e-05  0 
 1.147657e-03  -6.270961e-04  0 
 2.678095e-04  -1.740525e-04  0 
VECTORS displacement_ITER17 FLOAT
 0  0  0 
 0  0  0 
 1.316683e-04  -9.925331e-05  0 
 2.786759e-04  -2.170619e-04  0 
 4.213557e-04  -4.074803e-04  0 
 0  0  0 
 0  0  0 
 6.083350e-04  -6.421140e-04  0 
 1.192912e-03  -6.728944e-04  0 
 1.806872e-03  -1.399162e-04  0 
 0  0  0 
 0  0  0 
 0  0  0 
 -2.002757e-05  9.047109e-07  0 
 1.777760e-04  -2.555607e-04  0 
 2.463040e-05  -4.323993e-04  0 
 -6.627020e-05  -1.865027e-04  0 
 1.066545e-04  -6.949722e-05  0 
 2.924072e-04  -4.846608e-04  0 
 2.294696e-05  1.605072e-05  0 
 4.763038e-04  3.174269e-05  0 
 1.555341e-03  -1.356684e-04  0 
 7.675670e-04  -1.501173e-04  0 
 2.121417e-04  6.572546e-05  0 
 1.190430e-03  -2.194065e-04  0 
 1.665420e-03  -1.861263e-04  0 
 1.084054e-03  1.923002e-05  0 
 8.990505e-04  -2.518764e-04  0 
 5.012758e-04  8.826639e-05  0 
 2.334512e-04  6.896610e-05  0 
 9.139515e-04  -3.522480e-04  0 
 2.520356e-04  -9.989597e-05  0 
VECTORS displacement_ITER18 FLOAT
 0  0  0 
 0  0  0 
 1.320223e-04  -9.995276e-05  0 
 2.788504e-04  -2.186177e-04  0 
 4.208600e-04  -4.096805e-04  0 
 0  0  0 
 0  0  0 
 4.563665e-04  -4.639944e-04  0 
 9.084268e-04  -2.422953e-04  0 
 1.388148e-03  7.755511e-04  0 
 0  0  0 
 0  0  0 
 0  0  0 
 -2.044588e-05  -2.752145e-07  0 
 1.773940e-04  -2.579982e-04  0 
 2.440597e-05  -4.349333e-04  0 
 -6.671116e-05  -1.888414e-04  0 
 1.065049e-04  -7.097496e-05  0 
 2.917535e-04  -4.874410e-04  0 
 2.293282e-05  1.569837e-05  0 
 4.895739e-04  1.161715e-04  0 
 1.435392e-03  3.955370e-04  0 
 7.759511e-04  -5.039946e-07  0 
 2.347968e-04  9.393722e-05  0 
 1.144036e-03  1.426922e-04  0 
 1.547742e-03  3.643320e-04  0 
 1.080019e-03  3.038343e-04  0 
 8.361840e-04  -2.198565e-05  0 
 5.451331e-04  1.640968e-04  0 
 2.547541e-04  1.030029e-04  0 
 8.711198e-04  -9.789231e-05  0 
 2.407218e-04  -6.473765e-05  0 
VECTORS displacement_ITER19 FLOAT
 0  0  0 
 0  0  0 
 1.318721e-04  -1.004059e-04  0 
 2.781306e-04  -2.188577e-04  0 
 4.195480e-04  -4.089227e-04  0 
 0  0  0 
 0  0  0 
 6.186538e-04  -6.044879e-04  0 
 1.255460e-03  -5.478285e-04  0 
 1.976570e-03  1.032208e-04  0 
 0  0  0 
 0  0  0 
 0  0  0 
 -1.988859e-05  -6.795265e-07  0 
 1.775876e-04  -2.577107e-04  0 
 2.607601e-05  -4.330775e-04  0 
 -6.493222e-05  -1.884657e-04  0 
 1.065944e-04  -7.162958e-05  0 
 2.916299e-04  -4.856687e-04  0 
 2.299159e-05  1.524706e-05  0 
 5.116801e-04  1.057510e-04  0 
 1.667878e-03  9.079544e-05  0 
 7.724262e-04  -6.948814e-05  0 
 2.296322e-04  9.059396e-05  0 
 1.199416e-03  -5.769650e-05  0 
 1.750830e-03  2.376835e-05  0 
 1.137582e-03  1.834198e-04  0 
 9.626758e-04  -1.316775e-04  0 
 5.321375e-04  1.506465e-04  0 
 2.534422e-04  1.060332e-04  0 
 8.864256e-04  -2.299511e-04  0 
 2.708888e-04  -6.795042e-05  0 
VECTORS displacement_ITER20 FLOAT
 0  0  0 
 0  0  0 
 1.311490e-04  -1.004275e-04  0 
 2.764364e-04  -2.176525e-04  0 
 4.172272e-04  -4.052437e-04  0 
 0  0  0 
 0  0  0 
 6.931265e-04  -7.077367e-04  0 
 1.381479e-03  -8.898535e-04  0 
 2.139275e-03  -7.425017e-04  0 
 0  0  0 
 0  0  0 
 0  0  0 
 -1.871633e-05  -4.499343e-07  0 
 1.778039e-04  -2.549834e-04  0 
 2.850943e-05  -4.278370e-04  0 
 -6.189429e-05  -1.859572e-04  0 
 1.066557e-04  -7.139471e-05  0 
 2.912683e-04  -4.800180e-04  0 
 2.305080e-05  1.479002e-05  0 
 4.435913e-04  9.226932e-06  0 
 1.602540e-03  -4.144261e-04  0 
 6.709671e-04  -2.368398e-04  0 
 1.855060e-04  4.224698e-05  0 
 1.088027e-03  -4.270572e-04  0 
 1.663260e-03  -5.180749e-04  0 
 1.010648e-03  -1.152473e-04  0 
 9.198157e-04  -3.342757e-04  0 
 4.332385e-04  4.279748e-05  0 
 2.074103e-04  5.465426e-05  0 
 8.066063e-04  -4.807347e-04  0 
 2.533556e-04  -9.536553e-05  0 
VECTORS displacement_ITER21 FLOAT
 0  0  0 
 0  0  0 
 1.304464e-04  -1.004512e-04  0 
 2.747162e-04  -2.166029e-04  0 
 4.147722e-04  -4.020957e-04  0 
 0  0  0 
 0  0  0 
 6.182336e-04  -7.054891e-04  0 
 1.167477e-03  -9.821923e-04  0 
 1.691571e-03  -9.596952e-04  0 
 0  0  0 
 0  0  0 
 0  0  0 
 -1.778271e-05  -5.660562e-07  0 
 1.775560e-04  -2.528242e-04  0 
 3.030185e-05  -4.234565e-04  0 
 -5.937533e-05  -1.842217e-04  0 
 1.065169e-04  -7.140820e-05  0 
 2.902490e-04  -4.751591e-04  0 
 2.307252e-05  1.429857e-05  0 
 3.643235e-04  -9.905622e-05  0 
 1.323721e-03  -6.789579e-04  0 
 6.177682e-04  -3.471421e-04  0 
 1.513976e-04  -2.138018e-06  0 
 9.916630e-04  -6.278397e-04  0 
 1.418509e-03  -7.587246e-04  0 
 8.650471e-04  -3.342244e-04  0 
 7.615825e-04  -4.756316e-04  0 
 3.646318e-04  -5.741916e-05  0 
 1.673273e-04  -6.030897e-06  0 
 7.806270e-04  -6.293810e-04  0 
 2.085670e-04  -1.363717e-04  0 
VECTORS displacement_ITER22 FLOAT
 0  0  0 
 0  0  0 
 1.293406e-04  -1.000615e-04  0 
 2.721626e-04  -2.143923e-04  0 
 4.112035e-04  -3.968821e-04  0 
 0  0  0 
 0  0  0 
 5.705911e-04  -7.275486e-04  0 
 1.010872e-03  -1.043257e-03  0 
 1.337755e-03  -9.823677e-04  0 
 0  0  0 
 0  0  0 
 0  0  0 
 -1.645171e-05  -5.651573e-07  0 
 1.768843e-04  -2.492182e-04  0 
 3.235424e-05  -4.169683e-04  0 
 -5.602675e-05  -1.815373e-04  0 
 1.062080e-04  -7.098201e-05  0 
 2.883090e-04  -4.678363e-04  0 
 2.310102e-05  1.373849e-05  0 
 3.407681e-04  -1.778857e-04  0 
 1.179638e-03  -8.292364e-04  0 
 6.621171e-04  -3.981231e-04  0 
 1.443220e-04  -1.959880e-05  0 
 1.043575e-03  -7.224190e-04  0 
 1.336156e-03  -8.539632e-04  0 
 8.466526e-04  -4.673397e-04  0 
 6.814907e-04  -5.880882e-04  0 
 3.624320e-04  -1.068810e-04  0 
 1.565450e-04  -4.257689e-05  0 
 8.706673e-04  -7.115630e-04  0 
 1.866812e-04  -1.789481e-04  0 
VECTORS displacement_ITER23 FLOAT
 0  0  0 
 0  0  0 
 1.280225e-04  -9.933510e-05  0 
 2.692853e-04  -2.114139e-04  0 
 4.074153e-04  -3.904832e-04  0 
 0  0  0 
 0  0  0 
 7.667875e-04  -9.361422e-04  0 
 1.396639e-03  -1.454344e-03  0 
 1.936412e-03  -1.744048e-03  0 
 0  0  0 
 0  0  0 
 0  0  0 
 -1.493367e-05  -3.180694e-07  0 
 1.760675e-04  -2.446178e-04  0 
 3.431814e-05  -4.094430e-04  0 
 -5.243509e-05  -1.781692e-04  0 
 1.058454e-04  -7.008047e-05  0 
 2.860762e-04  -4.591825e-04  0 
 2.313506e-05  1.324140e-05  0 
 3.881859e-04  -2.216762e-04  0 
 1.471078e-03  -1.244346e-03  0 
 7.437388e-04  -4.825278e-04  0 
 1.494024e-04  -1.810124e-05  0 
 1.235676e-03  -9.748667e-04  0 
 1.643642e-03  -1.264129e-03  0 
 9.854824e-04  -6.526394e-04  0 
 8.421855e-04  -7.802835e-04  0 
 3.841580e-04  -1.238831e-04  0 
 1.658205e-04  -4.639672e-05  0 
 1.016167e-03  -8.924713e-04  0 
 2.258843e-04  -2.098767e-04  0 
VECTORS displacement_ITER24 FLOAT
 0  0  0 
 0  0  0 
 1.274779e-04  -9.933164e-05  0 
 2.678146e-04  -2.107200e-04  0 
 4.053589e-04  -3.886526e-04  0 
 0  0  0 
 0  0  0 
 9.008915e-04  -1.098209e-03  0 
 1.643437e-03  -1.788549e-03  0 
 2.290206e-03  -2.357822e-03  0 
 0  0  0 
 0  0  0 
 0  0  0 
 -1.449683e-05  -1.045829e-06  0 
 1.750677e-04  -2.436307e-04  0 
 3.460433e-05  -4.072841e-04  0 
 -5.114326e-05  -1.780898e-04  0 
 1.054199e-04  -7.048994e-05  0 
 2.840845e-04  -4.563164e-04  0 
 2.311378e-05  1.275613e-05  0 
 4.109242e-04  -2.801008e-04  0 
 1.638279e-03  -1.616022e-03  0 
 8.048502e-04  -5.706751e-04  0 
 1.480191e-04  -2.573361e-05  0 
 1.375378e-03  -1.208384e-03  0 
 1.834831e-03  -1.623113e-03  0 
 1.069500e-03  -8.414601e-04  0 
 9.339012e-04  -9.604395e-04  0 
 3.916982e-04  -1.579486e-04  0 
 1.664078e-04  -6.261801e-05  0 
 1.134879e-03  -1.063627e-03  0 
 2.472079e-04  -2.445014e-04  0 
VECTORS displacement_ITER25 FLOAT
 0  0  0 
 0  0  0 
 1.269732e-04  -9.947331e-05  0 
 2.663278e-04  -2.100247e-04  0 
 4.033325e-04  -3.865159e-04  0 
 0  0  0 
 0  0  0 
 1.115358e-03  -1.312464e-03  0 
 2.077068e-03  -2.217232e-03  0 
 2.984519e-03  -3.187355e-03  0 
 0  0  0 
 0  0  0 
 0  0  0 
 -1.380600e-05  -1.889284e-06  0 
 1.742286e-04  -2.424618e-04  0 
 3.531490e-05  -4.047323e-04  0 
 -4.924104e-05  -1.779859e-04  0 
 1.051343e-04  -7.104257e-05  0 
 2.821612e-04  -4.529433e-04  0 
 2.315438e-05  1.214161e-05  0 
 4.588735e-04  -3.151278e-04  0 
 1.959324e-03  -2.041863e-03  0 
 8.699695e-04  -6.596623e-04  0 
 1.515227e-04  -2.475859e-05  0 
 1.549306e-03  -1.472793e-03  0 
 2.156669e-03  -2.059372e-03  0 
 1.204107e-03  -1.023554e-03  0 
 1.110628e-03  -1.146151e-03  0 
 4.068668e-04  -1.737910e-04  0 
 1.747761e-04  -6.297167e-05  0 
 1.255549e-03  -1.249807e-03  0 
 2.903394e-04  -2.688204e-04  0 
VECTORS displacement_ITER26 FLOAT
 0  0  0 
 0  0  0 
 1.263249e-04  -9.941669e-05  0 
 2.646318e-04  -2.085254e-04  0 
 4.010084e-04  -3.825384e-04  0 
 0  0  0 
 0  0  0 
 1.099940e-03  -1.282989e-03  0 
 2.058155e-03  -2.134713e-03  0 
 2.974134e-03  -3.011477e-03  0 
 0  0  0 
 0  0  0 
 0  0  0 
 -1.259739e-05  -2.199222e-06  0 
 1.738692e-04  -2.399254e-04  0 
 3.696082e-05  -4.002781e-04  0 
 -4.629588e-05  -1.765134e-04  0 
 1.051041e-04  -7.102933e-05  0 
 2.806955e-04  -4.475811e-04  0 
 2.327124e-05  1.156568e-05  0 
 4.708571e-04  -2.861135e-04  0 
 1.976085e-03  -1.920220e-03  0 
 8.755104e-04  -6.177516e-04  0 
 1.592138e-04  -1.390722e-05  0 
 1.552901e-03  -1.385539e-03  0 
 2.169397e-03  -1.936601e-03  0 
 1.221627e-03  -9.464806e-04  0 
 1.120547e-03  -1.089310e-03  0 
 4.214655e-04  -1.465237e-04  0 
 1.828755e-04  -4.869410e-05  0 
 1.248490e-03  -1.185077e-03  0 
 2.940831e-04  -2.572205e-04  0 
VECTORS displacement_ITER27 FLOAT
 0  0  0 
 0  0  0 
 1.258174e-04  -9.949977e-05  0 
 2.633178e-04  -2.070628e-04  0 
 3.992553e-04  -3.782609e-04  0 
 0  0  0 
 0  0  0 
 8.818568e-04  -1.075306e-03  0 
 1.608606e-03  -1.734824e-03  0 
 2.239190e-03  -2.246105e-03  0 
 0  0  0 
 0  0  0 
 0  0  0 
 -1.107507e-05  -2.050351e-06  0 
 1.743454e-04  -2.369652e-04  0 
 3.958124e-05  -3.951207e-04  0 
 -4.267938e-05  -1.742275e-04  0 
 1.054802e-04  -7.078377e-05  0 
 2.804235e-04  -4.417480e-04  0 
 2.346867e-05  1.104503e-05  0 
 4.124588e-04  -2.665684e-04  0 
 1.626470e-03  -1.547559e-03  0 
 8.008273e-04  -5.439818e-04  0 
 1.503301e-04  -2.089311e-05  0 
 1.369094e-03  -1.157405e-03  0 
 1.823956e-03  -1.548944e-03  0 
 1.069692e-03  -7.998511e-04  0 
 9.267374e-04  -9.296672e-04  0 
 3.947625e-04  -1.434719e-04  0 
 1.681688e-04  -5.613365e-05  0 
 1.122849e-03  -1.022010e-03  0 
 2.456954e-04  -2.390602e-04  0 
VECTORS displacement_ITER28 FLOAT
 0  0  0 
 0  0  0 
 1.253622e-04  -9.955836e-05  0 
 2.622942e-04  -2.053194e-04  0 
 3.981691e-04  -3.733495e-04  0 
 0  0  0 
 0  0  0 
 8.164923e-04  -1.003979e-03  0 
 1.481921e-03  -1.641460e-03  0 
 2.046242e-03  -2.161486e-03  0 
 0  0  0 
 0  0  0 
 0  0  0 
 -9.149660e-06  -1.255443e-06  0 
 1.756657e-04  -2.330923e-04  0 
 4.322550e-05  -3.886862e-04  0 
 -3.826515e-05  -1.706908e-04  0 
 1.062577e-04  -7.004183e-05  0 
 2.813957e-04  -4.348209e-04  0 
 2.374780e-05  1.063341e-05  0 
 3.678147e-04  -2.663636e-04  0 
 1.478713e-03  -1.496684e-03  0 
 7.159411e-04  -5.491934e-04  0 
 1.328358e-04  -3.544744e-05  0 
 1.226672e-03  -1.145530e-03  0 
 1.652263e-03  -1.519626e-03  0 
 9.582448e-04  -7.913943e-04  0 
 8.424577e-04  -8.885693e-04  0 
 3.479995e-04  -1.634732e-04  0 
 1.482497e-04  -6.611224e-05  0 
 1.007412e-03  -1.003264e-03  0 
 2.228143e-04  -2.268615e-04  0 
VECTORS displacement_ITER29 FLOAT
 0  0  0 
 0  0  0 
 1.251010e-04  -9.978401e-05  0 
 2.614519e-04  -2.043952e-04  0 
 3.970282e-04  -3.702695e-04  0 
 0  0  0 
 0  0  0 
 6.955729e-04  -8.663401e-04  0 
 1.252087e-03  -1.343110e-03  0 
 1.702070e-03  -1.573632e-03  0 
 0  0  0 
 0  0  0 
 0  0  0 
 -7.880629e-06  -1.300975e-06  0 
 1.761739e-04  -2.310440e-04  0 
 4.545532e-05  -3.849518e-04  0 
 -3.522988e-05  -1.692264e-04  0 
 1.066715e-04  -7.007061e-05  0 
 2.813063e-04  -4.305345e-04  0 
 2.395001e-05  1.015056e-05  0 
 3.559101e-04  -2.170688e-04  0 
 1.339189e-03  -1.158299e-03  0 
 6.850985e-04  -4.616844e-04  0 
 1.386236e-04  -2.495762e-05  0 
 1.138721e-03  -9.245551e-04  0 
 1.505261e-03  -1.177974e-03  0 
 9.072315e-04  -6.193759e-04  0 
 7.662759e-04  -7.349302e-04  0 
 3.538166e-04  -1.270965e-04  0 
 1.520736e-04  -5.055069e-05  0 
 9.339645e-04  -8.431440e-04  0 
 2.055674e-04  -2.013451e-04  0 
VECTORS displacement_ITER30 FLOAT
 0  0  0 
 0  0  0 
 1.250241e-04  -1.002056e-04  0 
 2.607958e-04  -2.045591e-04  0 
 3.958791e-04  -3.696787e-04  0 
 0  0  0 
 0  0  0 
 6.019139e-04  -7.629497e-04  0 
 1.071190e-03  -1.093264e-03  0 
 1.425413e-03  -1.032447e-03  0 
 0  0  0 
 0  0  0 
 0  0  0 
 -7.516442e-06  -2.288431e-06  0 
 1.756775e-04  -2.312287e-04  0 
 4.586221e-05  -3.845007e-04  0 
 -3.408767e-05  -1.701568e-04  0 
 1.065777e-04  -7.098453e-05  0 
 2.800362e-04  -4.295336e-04  0 
 2.401839e-05  9.621142e-06  0 
 3.620948e-04  -1.732736e-04  0 
 1.257232e-03  -8.558893e-04  0 
 6.936935e-04  -3.764862e-04  0 
 1.514796e-04  -9.482843e-06  0 
 1.116520e-03  -7.179247e-04  0 
 1.429877e-03  -8.598823e-04  0 
 9.040623e-04  -4.614917e-04  0 
 7.229842e-04  -6.080400e-04  0 
 3.795459e-04  -8.563245e-05  0 
 1.637964e-04  -3.310318e-05  0 
 9.161919e-04  -6.986282e-04  0 
 1.971871e-04  -1.840142e-04  0 
VECTORS displacement_ITER31 FLOAT
 0  0  0 
 0  0  0 
 1.247295e-04  -1.006773e-04  0 
 2.595300e-04  -2.044420e-04  0 
 3.938686e-04  -3.681924e-04  0 
 0  0  0 
 0  0  0 
 5.280960e-04  -6.880437e-04  0 
 9.229295e-04  -9.129316e-04  0 
 1.188451e-03  -6.319585e-04  0 
 0  0  0 
 0  0  0 
 0  0  0 
 -6.877211e-06  -3.551716e-06  0 
 1.749060e-04  -2.308939e-04  0 
 4.663064e-05  -3.829073e-04  0 
 -3.218164e-05  -1.709104e-04  0 
 1.063776e-04  -7.207575e-05  0 
 2.781154e-04  -4.271140e-04  0 
 2.409774e-05  8.861970e-06  0 
 3.646431e-04  -1.474568e-04  0 