# vtk DataFile Version 3.1
this is an vtk file created by FEMAC
ASCII
DATASET UNSTRUCTURED_GRID
POINTS 31 FLOAT
4.000000 5.000000 0.000000
5.000000 5.000000 0.000000
3.500000 5.000000 0.000000
3.750000 5.000000 0.000000
4.000000 4.500000 0.000000
4.000000 4.750000 0.000000
4.000000 5.250000 0.000000
4.000000 5.500000 0.000000
4.250000 5.000000 0.000000
4.500000 5.000000 0.000000
4.750000 5.000000 0.000000
3.779581 4.617843 0.000000
3.755447 4.375936 0.000000
3.782363 4.813195 0.000000
3.612492 4.786998 0.000000
3.512466 4.547863 0.000000
3.371004 4.799680 0.000000
3.745000 5.195000 0.000000
3.830433 5.378219 0.000000
3.757141 5.565925 0.000000
3.586659 5.323754 0.000000
4.178356 4.674167 0.000000
4.225000 4.500000 0.000000
4.341416 4.828194 0.000000
4.581646 4.808128 0.000000
4.401594 4.630720 0.000000
4.661856 4.507893 0.000000
4.832250 4.761003 0.000000
4.153954 4.850472 0.000000
4.195000 5.255000 0.000000
4.384000 5.201000 0.000000
CELLS 43 172 
3 5 11  4
3 3 13  0
3 13  5  0
3 13 11  5
3 14  3  2
3 13  3 14
3 11 12  4
3 11 15 12
3 11 13 14
3 11 14 15
3 16 15 14
3 14  2 16
3 17  2  3
3 18  6  7
3 18 20 17
3 18 17  6
3 20  2 17
3 0 17  3
3 0  6 17
3 18  7 19
3 18 19 20
3 4 21  5
3 22 21  4
3 25 21 22
3 8 23  9
3 24 10  9
3 25 23 21
3 10 27  1
3 5 28  0
3 28  8  0
3 28  5 21
3 24 27 10
3 28 23  8
3 21 23 28
3 9 23 24
3 24 23 25
3 25 26 24
3 24 26 27
3 29  7  6
3 30  8  9
3 30 29  8
3 0 29  6
3 0  8 29
CELL_TYPES 43
5 5 5 5 5 5 5 5 5 5 5 5 5 5 5 5 5 5 5 5 5 5 5 5 5 5 5 5 5 5 5 5 5 5 5 5 5 5 5 5 5 5 5 
POINT_DATA 31
VECTORS displacement_ITER1 FLOAT
 1.245313e-01  -2.512550e-01  0 
 1.246689e-01  -3.063572e-01  0 
 1.244444e-01  -2.343570e-01  0 
 1.244805e-01  -2.428051e-01  0 
 9.714624e-02  -2.512514e-01  0 
 1.108551e-01  -2.512516e-01  0 
 1.328978e-01  -2.512332e-01  0 
 1.412851e-01  -2.512231e-01  0 
 1.245847e-01  -2.649919e-01  0 
 1.246238e-01  -2.787505e-01  0 
 1.246510e-01  -2.925358e-01  0 
 1.019879e-01  -2.343973e-01  0 
 9.257074e-02  -2.254356e-01  0 
 1.125428e-01  -2.401992e-01  0 
 1.070102e-01  -2.292952e-01  0 
 8.945854e-02  -2.069226e-01  0 
 9.452249e-02  -2.046545e-01  0 
 1.310558e-01  -2.426723e-01  0 
 1.372016e-01  -2.455337e-01  0 
 1.434897e-01  -2.430731e-01  0 
 1.353781e-01  -2.373487e-01  0 
 1.066933e-01  -2.610347e-01  0 
 9.713568e-02  -2.636045e-01  0 
 1.151525e-01  -2.699990e-01  0 
 1.140614e-01  -2.832339e-01  0 
 1.043007e-01  -2.733096e-01  0 
 9.753524e-02  -2.876615e-01  0 
 1.114672e-01  -2.970588e-01  0 
 1.163616e-01  -2.596923e-01  0 
 1.342024e-01  -2.614551e-01  0 
 1.328994e-01  -2.725336e-01  0 
VECTORS displacement_ITER2 FLOAT
 1.112676e-01  -1.863622e-01  0 
 1.114533e-01  -2.414524e-01  0 
 1.111700e-01  -1.678454e-01  0 
 1.112103e-01  -1.770996e-01  0 
 8.396429e-02  -1.863680e-01  0 
 9.763028e-02  -1.863582e-01  0 
 1.204407e-01  -1.863457e-01  0 
 1.296551e-01  -1.863459e-01  0 
 1.113383e-01  -2.000755e-01  0 
 1.113935e-01  -2.138214e-01  0 
 1.114312e-01  -2.276086e-01  0 
 9.146624e-02  -1.741820e-01  0 
 9.425313e-02  -1.768361e-01  0 
 1.000426e-01  -1.768624e-01  0 
 9.641467e-02  -1.689532e-01  0 
 8.978788e-02  -1.630461e-01  0 
 9.112787e-02  -1.560668e-01  0 
 1.184161e-01  -1.769515e-01  0 
 1.251648e-01  -1.800913e-01  0 
 1.320817e-01  -1.773805e-01  0 
 1.231615e-01  -1.711019e-01  0 
 9.347586e-02  -1.961162e-01  0 
 8.394120e-02  -1.986877e-01  0 
 1.019213e-01  -2.050673e-01  0 
 1.008345e-01  -2.182976e-01  0 
 9.108057e-02  -2.083742e-01  0 
 8.430621e-02  -2.227336e-01  0 
 9.823688e-02  -2.321313e-01  0 
 1.031239e-01  -1.947770e-01  0 
 1.222705e-01  -1.973556e-01  0 
 1.214149e-01  -2.090556e-01  0 
VECTORS displacement_ITER3 FLOAT
 8.317468e-02  -1.206766e-01  0 
 8.342745e-02  -1.644010e-01  0 
 8.305325e-02  -1.052740e-01  0 
 8.310356e-02  -1.129675e-01  0 
 6.164209e-02  -1.206807e-01  0 
 7.242718e-02  -1.206672e-01  0 
 9.078106e-02  -1.206692e-01  0 
 9.845730e-02  -1.206846e-01  0 
 8.327151e-02  -1.315222e-01  0 
 8.334747e-02  -1.424133e-01  0 
 8.339868e-02  -1.533653e-01  0 
 6.937027e-02  -1.149548e-01  0 
 8.196684e-02  -1.249688e-01  0 
 7.470872e-02  -1.148353e-01  0 
 7.324026e-02  -1.116746e-01  0 
 7.572879e-02  -1.203048e-01  0 
 7.509070e-02  -1.129348e-01  0 
 8.909212e-02  -1.128564e-01  0 
 9.471057e-02  -1.154674e-01  0 
 1.004832e-01  -1.131995e-01  0 
 9.304132e-02  -1.079778e-01  0 
 6.914335e-02  -1.283716e-01  0 
 6.160982e-02  -1.304133e-01  0 
 7.582462e-02  -1.354570e-01  0 
 7.497161e-02  -1.459547e-01  0 
 6.724069e-02  -1.380765e-01  0 
 6.185562e-02  -1.494885e-01  0 
 7.290650e-02  -1.569526e-01  0 
 7.676488e-02  -1.273133e-01  0 
 9.330217e-02  -1.304299e-01  0 
 9.362493e-02  -1.407916e-01  0 
VECTORS displacement_ITER4 FLOAT
 6.813308e-02  -9.888371e-02  0 
 6.840849e-02  -1.379553e-01  0 
 6.799979e-02  -8.351826e-02  0 
 6.805566e-02  -9.119263e-02  0 
 4.895186e-02  -9.887634e-02  0 
 5.856609e-02  -9.886702e-02  0 
 7.571920e-02  -9.888436e-02  0 
 8.338680e-02  -9.890727e-02  0 
 6.824038e-02  -1.085539e-01  0 
 6.832302e-02  -1.182753e-01  0 
 6.837817e-02  -1.280683e-01  0 
 5.624192e-02  -9.500488e-02  0 
 7.045534e-02  -1.061605e-01  0 
 6.061254e-02  -9.398988e-02  0 
 5.983174e-02  -9.225974e-02  0 
 6.437915e-02  -1.052521e-01  0 
 6.417398e-02  -9.808982e-02  0 
 7.402903e-02  -9.108535e-02  0 
 7.964174e-02  -9.369447e-02  0 
 8.541351e-02  -9.142846e-02  0 
 7.797198e-02  -8.621104e-02  0 
 5.563837e-02  -1.057341e-01  0 
 4.891903e-02  -1.075581e-01  0 
 6.159942e-02  -1.120575e-01  0 
 6.084063e-02  -1.214372e-01  0 
 5.393787e-02  -1.143970e-01  0 
 4.912325e-02  -1.246027e-01  0 
 5.899351e-02  -1.312743e-01  0 
 6.243281e-02  -1.047911e-01  0 
 7.839193e-02  -1.079307e-01  0 
 7.891448e-02  -1.176224e-01  0 
VECTORS displacement_ITER5 FLOAT
 4.950303e-02  -4.738678e-02  0 
 4.977176e-02  -8.950162e-02  0 
 4.936492e-02  -2.570908e-02  0 
 4.942456e-02  -3.654180e-02  0 
 2.877989e-02  -4.735041e-02  0 
 3.917264e-02  -4.735440e-02  0 
 6.025629e-02  -4.740432e-02  0 
 7.109524e-02  -4.743602e-02  0 
 4.961154e-02  -5.780894e-02  0 
 4.969137e-02  -6.828597e-02  0 
 4.974387e-02  -7.884528e-02  0 
 3.566779e-02  -4.184258e-02  0 
 4.492051e-02  -5.108184e-02  0 
 4.115268e-02  -4.045436e-02  0 
 4.039071e-02  -3.737134e-02  0 
 4.248064e-02  -5.025574e-02  0 
 4.583601e-02  -4.215850e-02  0 
 5.786154e-02  -3.637334e-02  0 
 6.580301e-02  -4.007288e-02  0 
 7.396262e-02  -3.688275e-02  0 
 6.343635e-02  -2.949118e-02  0 
 3.601408e-02  -5.477033e-02  0 
 2.875389e-02  -5.673464e-02  0 
 4.244778e-02  -6.159232e-02  0 
 4.162384e-02  -7.170418e-02  0 
 3.418197e-02  -6.411858e-02  0 
 2.899580e-02  -7.511764e-02  0 
 3.963215e-02  -8.230608e-02  0 
 4.334992e-02  -5.375443e-02  0 
 6.273292e-02  -5.667037e-02  0 
 6.233274e-02  -6.676377e-02  0 
VECTORS displacement_ITER6 FLOAT
 4.718135e-02  -5.122189e-02  0 
 4.743016e-02  -6.914264e-02  0 
 4.704096e-02  -4.103825e-02  0 
 4.710282e-02  -4.612762e-02  0 
 3.849895e-02  -5.115657e-02  0 
 4.288131e-02  -5.117767e-02  0 
 5.219335e-02  -5.125020e-02  0 
 5.728311e-02  -5.128723e-02  0 
 4.728401e-02  -5.559925e-02  0 
 4.735559e-02  -6.003068e-02  0 
 4.740321e-02  -6.454063e-02  0 
 3.978465e-02  -4.740689e-02  0 
 3.922924e-02  -4.533263e-02  0 
 4.296119e-02  -4.791407e-02  0 
 4.188521e-02  -4.651164e-02  0 
 3.787193e-02  -4.797237e-02  0 
 4.296838e-02  -4.867705e-02  0 
 5.105756e-02  -4.607780e-02  0 
 5.479043e-02  -4.782198e-02  0 
 5.863379e-02  -4.632594e-02  0 
 5.367103e-02  -4.283880e-02  0 
 4.155388e-02  -5.429491e-02  0 
 3.848811e-02  -5.512627e-02  0 
 4.427031e-02  -5.717887e-02  0 
 4.392896e-02  -6.147863e-02  0 
 4.077707e-02  -5.825136e-02  0 
 3.857359e-02  -6.294331e-02  0 
 4.308093e-02  -6.600999e-02  0 
 4.463698e-02  -5.386828e-02  0 
 5.460123e-02  -5.511177e-02  0 
 5.527647e-02  -6.036490e-02  0 
VECTORS displacement_ITER7 FLOAT
 3.860505e-02  -3.817387e-02  0 
 3.883929e-02  -4.711976e-02  0 
 3.846589e-02  -3.342967e-02  0 
 3.852807e-02  -3.580212e-02  0 
 3.437305e-02  -3.809167e-02  0 
 3.653565e-02  -3.812136e-02  0 
 4.090503e-02  -3.821229e-02  0 
 4.327578e-02  -3.825639e-02  0 
 3.870268e-02  -4.030829e-02  0 
 3.876897e-02  -4.250050e-02  0 
 3.881339e-02  -4.476511e-02  0 
 3.376137e-02  -3.484504e-02  0 
 2.688628e-02  -2.774268e-02  0 
 3.626747e-02  -3.618904e-02  0 
 3.525724e-02  -3.514818e-02  0 
 2.815835e-02  -3.040957e-02  0 
 3.434796e-02  -3.520391e-02  0 
 4.036223e-02  -3.580861e-02  0 
 4.210586e-02  -3.663160e-02  0 
 4.390846e-02  -3.593864e-02  0 
 4.157475e-02  -3.429364e-02  0 
 3.588548e-02  -3.964866e-02  0 
 3.437060e-02  -4.005884e-02  0 
 3.722553e-02  -4.107332e-02  0 
 3.706249e-02  -4.321712e-02  0 
 3.550050e-02  -4.160652e-02  0 
 3.440513e-02  -4.395449e-02  0 
 3.663936e-02  -4.549433e-02  0 
 3.739567e-02  -3.944010e-02  0 
 4.359118e-02  -3.969130e-02  0 
 4.488876e-02  -4.312803e-02  0 
VECTORS displacement_ITER8 FLOAT
 3.074975e-02  -2.722209e-02  0 
 3.097645e-02  -3.863412e-02  0 
 3.061062e-02  -2.201660e-02  0 
 3.067316e-02  -2.462064e-02  0 
 2.527450e-02  -2.713491e-02  0 
 2.805991e-02  -2.716651e-02  0 
 3.328383e-02  -2.726537e-02  0 
 3.588663e-02  -2.731323e-02  0 
 3.084608e-02  -2.997291e-02  0 
 3.091055e-02  -3.278557e-02  0 
 3.095279e-02  -3.566514e-02  0 
 2.541988e-02  -2.340997e-02  0 
 1.725953e-02  -1.667011e-02  0 
 2.831488e-02  -2.469642e-02  0 
 2.751063e-02  -2.316616e-02  0 
 2.033891e-02  -1.783410e-02  0 
 2.676640e-02  -2.244755e-02  0 
 3.268761e-02  -2.462344e-02  0 
 3.460267e-02  -2.552903e-02  0 
 3.658037e-02  -2.477005e-02  0 
 3.401929e-02  -2.296224e-02  0 
 2.722132e-02  -2.913686e-02  0 
 2.527327e-02  -2.966125e-02  0 
 2.894294e-02  -3.096585e-02  0 
 2.872989e-02  -3.370327e-02  0 
 2.672941e-02  -3.164750e-02  0 
 2.533260e-02  -3.463579e-02  0 
 2.819059e-02  -3.659676e-02  0 
 2.916949e-02  -2.886797e-02  0 
 3.617673e-02  -2.887641e-02  0 
 3.745348e-02  -3.272771e-02  0 
VECTORS displacement_ITER9 FLOAT
 2.708034e-02  -2.931599e-02  0 
 2.728485e-02  -3.223553e-02  0 
 2.693959e-02  -2.814003e-02  0 
 2.700349e-02  -2.873062e-02  0 
 2.582377e-02  -2.921955e-02  0 
 2.650218e-02  -2.925742e-02  0 
 2.760158e-02  -2.936338e-02  0 
 2.818822e-02  -2.941286e-02  0 
 2.717339e-02  -2.995070e-02  0 
 2.723182e-02  -3.064878e-02  0 
 2.726716e-02  -3.140057e-02  0 
 2.481885e-02  -2.638573e-02  0 
 1.551043e-02  -1.789548e-02  0 
 2.647566e-02  -2.797615e-02  0 
 2.595290e-02  -2.708353e-02  0 
 1.879039e-02  -1.937463e-02  0 
 2.444371e-02  -2.611094e-02  0 
 2.744657e-02  -2.877562e-02  0 
 2.788619e-02  -2.899606e-02  0 
 2.835063e-02  -2.883162e-02  0 
 2.773983e-02  -2.839215e-02  0 
 2.630504e-02  -2.972191e-02  0 
 2.582686e-02  -2.984767e-02  0 
 2.672338e-02  -3.017364e-02  0 
 2.667970e-02  -3.087424e-02  0 
 2.618407e-02  -3.034471e-02  0 
 2.583679e-02  -3.112077e-02  0 
 2.654151e-02  -3.163345e-02  0 
 2.676310e-02  -2.965976e-02  0 
 3.039783e-02  -2.879579e-02  0 
 3.191387e-02  -3.078912e-02  0 
VECTORS displacement_ITER10 FLOAT
 1.449193e-02  -1.914542e-02  0 
 1.467910e-02  -2.335217e-02  0 
 1.435213e-02  -1.542782e-02  0 
 1.441643e-02  -1.729013e-02  0 
 1.257896e-02  -1.904370e-02  0 
 1.358460e-02  -1.908368e-02  0 
 1.628982e-02  -1.919817e-02  0 
 1.815256e-02  -1.924866e-02  0 
 1.458258e-02  -2.010416e-02  0 
 1.463709e-02  -2.112902e-02  0 
 1.466700e-02  -2.220083e-02  0 
 1.241479e-02  -1.624378e-02  0 
 5.319281e-03  -1.073996e-02  0 
 1.389433e-02  -1.706919e-02  0 
 1.379897e-02  -1.578811e-02  0 
 8.869648e-03  -1.089505e-02  0 
 1.367130e-02  -1.525319e-02  0 
 1.585197e-02  -1.730948e-02  0 
 1.722882e-02  -1.796824e-02  0 
 1.865354e-02  -1.743219e-02  0 
 1.680233e-02  -1.611849e-02  0 
 1.328862e-02  -1.978186e-02  0 
 1.258187e-02  -1.996679e-02  0 
 1.390786e-02  -2.044839e-02  0 
 1.383679e-02  -2.146134e-02  0 
 1.311177e-02  -2.069756e-02  0 
 1.260710e-02  -2.181132e-02  0 
 1.363669e-02  -2.254153e-02  0 
 1.397791e-02  -1.968905e-02  0 
 1.881914e-02  -1.851126e-02  0 
 1.976144e-02  -2.048929e-02  0 
VECTORS displacement_ITER11 FLOAT
 1.258887e-02  -1.577092e-02  0 
 1.277131e-02  -1.903328e-02  0 
 1.244848e-02  -1.154138e-02  0 
 1.251378e-02  -1.366089e-02  0 
 1.114509e-02  -1.566267e-02  0 
 1.191557e-02  -1.570420e-02  0 
 1.464758e-02  -1.582929e-02  0 
 1.677075e-02  -1.588139e-02  0 
 1.267934e-02  -1.649023e-02  0 
 1.273337e-02  -1.728052e-02  0 
 1.276142e-02  -1.811711e-02  0 
 1.124026e-02  -1.355268e-02  0 
 6.493827e-03  -1.035633e-02  0 
 1.225912e-02  -1.380441e-02  0 
 1.244747e-02  -1.268789e-02  0 
 9.425204e-03  -1.009356e-02  0 
 1.316342e-02  -1.286420e-02  0 
 1.415022e-02  -1.367557e-02  0 
 1.571983e-02  -1.442549e-02  0 
 1.734193e-02  -1.381527e-02  0 
 1.523472e-02  -1.232028e-02  0 
 1.169115e-02  -1.623448e-02  0 
 1.114730e-02  -1.637478e-02  0 
 1.216613e-02  -1.674886e-02  0 
 1.211309e-02  -1.753679e-02  0 
 1.155485e-02  -1.694144e-02  0 
 1.116406e-02  -1.781284e-02  0 
 1.195603e-02  -1.838189e-02  0 
 1.221575e-02  -1.616614e-02  0 
 1.702777e-02  -1.455382e-02  0 
 1.769330e-02  -1.616264e-02  0 
VECTORS displacement_ITER12 FLOAT
 8.651750e-03  -1.056711e-02  0 
 8.844246e-03  -1.566933e-02  0 
 8.506257e-03  -6.430714e-03  0 
 8.574347e-03  -8.505256e-03  0 
 6.298745e-03  -1.045116e-02  0 
 7.524426e-03  -1.049347e-02  0 
 1.066521e-02  -1.063122e-02  0 
 1.274338e-02  -1.068655e-02  0 
 8.745939e-03  -1.173660e-02  0 
 8.803852e-03  -1.298594e-02  0 
 8.833684e-03  -1.428576e-02  0 
 6.980061e-03  -8.905500e-03  0 
 4.120068e-03  -7.784643e-03  0 
 8.076296e-03  -8.778523e-03  0 
 8.377936e-03  -7.783663e-03  0 
 6.462700e-03  -6.900685e-03  0 
 9.561685e-03  -8.062954e-03  0 
 1.017519e-02  -8.523441e-03  0 
 1.171351e-02  -9.260379e-03  0 
 1.330341e-02  -8.664855e-03  0 
 1.123667e-02  -7.196869e-03  0 
 7.161615e-03  -1.134796e-02  0 
 6.298962e-03  -1.157388e-02  0 
 7.919187e-03  -1.216106e-02  0 
 7.829466e-03  -1.339236e-02  0 
 6.944173e-03  -1.246422e-02  0 
 6.322569e-03  -1.381972e-02  0 
 7.584039e-03  -1.470369e-02  0 
 8.009091e-03  -1.123666e-02  0 
 1.320058e-02  -9.023905e-03  0 
 1.376634e-02  -1.084221e-02  0 
VECTORS displacement_ITER13 FLOAT
 6.154734e-03  -6.804784e-03  0 
 6.372942e-03  -1.615823e-02  0 
 5.997466e-03  -3.915213e-03  0 
 6.071080e-03  -5.368620e-03  0 
 1.699732e-03  -6.677952e-03  0 
 3.979074e-03  -6.721532e-03  0 
 7.540596e-03  -6.874447e-03  0 
 8.992163e-03  -6.935209e-03  0 
 6.257361e-03  -9.020896e-03  0 
 6.323594e-03  -1.133026e-02  0 
 6.358891e-03  -1.369832e-02  0 
 3.124853e-03  -5.564343e-03  0 
 1.197032e-03  -5.919066e-03  0 
 4.859014e-03  -5.372975e-03  0 
 5.017310e-03  -4.393266e-03  0 
 3.009199e-03  -3.868297e-03  0 
 5.860852e-03  -3.491388e-03  0 
 7.185556e-03  -5.405056e-03  0 
 8.266010e-03  -5.930575e-03  0 
 9.386659e-03  -5.519351e-03  0 
 7.924752e-03  -4.475001e-03  0 
 3.296246e-03  -8.326104e-03  0 
 1.697351e-03  -8.749966e-03  0 
 4.706150e-03  -9.828691e-03  0 
 4.532867e-03  -1.208256e-02  0 
 2.892675e-03  -1.038702e-02  0 
 1.742548e-03  -1.285606e-02  0 
 4.085689e-03  -1.446777e-02  0 
 4.888522e-03  -8.113617e-03  0 
 1.056799e-02  -5.004306e-03  0 
 1.125782e-02  -7.525126e-03  0 
VECTORS displacement_ITER14 FLOAT
 8.468602e-03  -6.720290e-03  0 
 8.696175e-03  -1.418503e-02  0 
 8.305667e-03  -4.866881e-03  0 
 8.382210e-03  -5.803493e-03  0 
 4.960488e-03  -6.584950e-03  0 
 6.768513e-03  -6.631388e-03  0 
 9.335093e-03  -6.793432e-03  0 
 1.026845e-02  -6.856938e-03  0 
 8.574398e-03  -8.459039e-03  0 
 8.642948e-03  -1.029563e-02  0 
 8.680264e-03  -1.219343e-02  0 
 5.834050e-03  -5.741841e-03  0 
 3.725788e-03  -5.570857e-03  0 
 7.382868e-03  -5.681459e-03  0 
 7.398850e-03  -4.797729e-03  0 
 4.970782e-03  -3.495093e-03  0 
 7.640485e-03  -3.099322e-03  0 
 9.092636e-03  -5.853030e-03  0 
 9.794023e-03  -6.202762e-03  0 
 1.052648e-02  -5.944244e-03  0 
 9.564987e-03  -5.251336e-03  0 
 6.229649e-03  -7.897974e-03  0 
 4.959020e-03  -8.232770e-03  0 
 7.349167e-03  -9.092766e-03  0 
 7.214523e-03  -1.089342e-02  0 
 5.908487e-03  -9.536988e-03  0 
 4.989831e-03  -1.151567e-02  0 
 6.856731e-03  -1.280763e-02  0 
 7.488664e-03  -7.732825e-03  0 
 1.240034e-02  -4.322053e-03  0 
 1.316457e-02  -6.462873e-03  0 
VECTORS displacement_ITER15 FLOAT
 7.054841e-03  -5.163346e-03  0 
 7.294333e-03  -1.020202e-02  0 
 6.885339e-03  -2.879950e-03  0 
 6.965646e-03  -4.033212e-03  0 
 4.761845e-03  -5.015833e-03  0 
 5.964552e-03  -5.066050e-03  0 
 8.137036e-03  -5.242851e-03  0 
 9.289589e-03  -5.310923e-03  0 
 7.164591e-03  -6.289057e-03  0 
 7.235698e-03  -7.518403e-03  0 
 7.275815e-03  -8.812207e-03  0 
 5.062520e-03  -4.460549e-03  0 
 3.786953e-03  -4.742184e-03  0 
 6.201529e-03  -4.217963e-03  0 
 6.155641e-03  -3.298427e-03  0 
 4.237637e-03  -2.586745e-03  0 
 6.310043e-03  -1.096425e-03  0 
 7.844325e-03  -4.081301e-03  0 
 8.707168e-03  -4.507252e-03  0 
 9.606481e-03  -4.185347e-03  0 
 8.429273e-03  -3.341343e-03  0 
 5.610680e-03  -5.898905e-03  0 
 4.761458e-03  -6.119112e-03  0 
 6.357728e-03  -6.699114e-03  0 
 6.272693e-03  -7.917483e-03  0 
 5.395543e-03  -6.996400e-03  0 
 4.774309e-03  -8.344718e-03  0 
 6.029879e-03  -9.226689e-03  0 
 6.442177e-03  -5.795066e-03  0 
 1.109298e-02  -2.335029e-03  0 
 1.175856e-02  -4.059156e-03  0 
VECTORS displacement_ITER16 FLOAT
 5.478086e-03  -6.598760e-03  0 
 5.725255e-03  -8.855370e-03  0 
 5.303288e-03  -4.304942e-03  0 
 5.386199e-03  -5.463420e-03  0 
 4.581241e-03  -6.449225e-03  0 
 5.086971e-03  -6.500067e-03  0 
 6.562727e-03  -6.679401e-03  0 
 7.721914e-03  -6.749443e-03  0 
 5.590985e-03  -7.028185e-03  0 
 5.663634e-03  -7.562315e-03  0 
 5.705448e-03  -8.160520e-03  0 
 4.543246e-03  -6.227521e-03  0 
 4.336810e-03  -6.919663e-03  0 
 5.101320e-03  -5.829909e-03  0 
 5.163127e-03  -5.115433e-03  0 
 4.203681e-03  -5.232023e-03  0 
 5.580733e-03  -3.448778e-03  0 
 6.268463e-03  -5.513268e-03  0 
 7.135618e-03  -5.940800e-03  0 
 8.041035e-03  -5.616183e-03  0 
 6.856362e-03  -4.769047e-03  0 
 4.944702e-03  -6.835595e-03  0 
 4.580929e-03  -6.925484e-03  0 
 5.262985e-03  -7.182639e-03  0 
 5.235043e-03  -7.732688e-03  0 
 4.851121e-03  -7.311549e-03  0 
 4.572574e-03  -7.935453e-03  0 
 5.124232e-03  -8.344955e-03  0 
 5.284464e-03  -6.800070e-03  0 
 9.458094e-03  -3.544423e-03  0 
 1.018862e-02  -4.892331e-03  0 
VECTORS displacement_ITER17 FLOAT
 4.432322e-03  -8.222612e-03  0 
 4.681631e-03  -9.625323e-03  0 
 4.251596e-03  -6.127856e-03  0 
 4.337154e-03  -7.186583e-03  0 
 3.963866e-03  -8.071797e-03  0 
 4.257138e-03  -8.124134e-03  0 
 5.411834e-03  -8.301505e-03  0 
 6.468496e-03  -8.371263e-03  0 
 4.547758e-03  -8.440442e-03  0 
 4.620874e-03  -8.762372e-03  0 
 4.662527e-03  -9.146504e-03  0 
 3.687168e-03  -7.475186e-03  0 
 3.104672e-03  -7.331255e-03  0 
 4.157122e-03  -7.360113e-03  0 
 4.083937e-03  -6.496510e-03  0 
 2.764784e-03  -5.590242e-03  0 
 3.977736e-03  -4.220380e-03  0 
 5.140853e-03  -7.240788e-03  0 
 5.932189e-03  -7.632135e-03  0 
 6.760406e-03  -7.336704e-03  0 
 5.675967e-03  -6.561101e-03  0 
 4.179786e-03  -8.307667e-03  0 
 3.964185e-03  -8.357356e-03  0 
 4.366618e-03  -8.516794e-03  0 
 4.356628e-03  -8.862728e-03  0 
 4.124002e-03  -8.594276e-03  0 
 3.952392e-03  -8.996461e-03  0 
 4.286884e-03  -9.260224e-03  0 
 4.368313e-03  -8.292692e-03  0 
 8.272753e-03  -5.102856e-03  0 
 9.033360e-03  -6.350524e-03  0 
VECTORS displacement_ITER18 FLOAT
 3.538812e-03  -9.058364e-03  0 
 3.789195e-03  -8.229444e-03  0 
 3.356754e-03  -7.238429e-03  0 
 3.443249e-03  -8.160012e-03  0 
 4.182947e-03  -8.903870e-03  0 
 3.920695e-03  -8.957602e-03  0 
 4.381467e-03  -9.138808e-03  0 
 5.302565e-03  -9.209047e-03  0 
 3.654876e-03  -8.718152e-03  0 
 3.728260e-03  -8.482733e-03  0 
 3.770111e-03  -8.309522e-03  0 
 3.514303e-03  -8.484167e-03  0 
 3.043154e-03  -8.166377e-03  0 
 3.608986e-03  -8.369393e-03  0 
 3.540055e-03  -7.611939e-03  0 
 2.488283e-03  -6.610892e-03  0 
 3.304108e-03  -5.471360e-03  0 
 4.140076e-03  -8.217501e-03  0 
 4.832149e-03  -8.562370e-03  0 
 5.558982e-03  -8.306941e-03  0 
 4.605276e-03  -7.624102e-03  0 
 4.012477e-03  -8.744094e-03  0 
 4.184137e-03  -8.689240e-03  0 
 3.856725e-03  -8.590431e-03  0 
 3.891705e-03  -8.400753e-03  0 
 4.053994e-03  -8.533399e-03  0 
 4.156862e-03  -8.354365e-03  0 
 3.927650e-03  -8.239056e-03  0 
 3.808601e-03  -8.784036e-03  0 
 7.105098e-03  -5.728828e-03  0 
 7.877069e-03  -6.586483e-03  0 
VECTORS displacement_ITER19 FLOAT
 2.701548e-03  -8.212076e-03  0 
 2.958868e-03  -7.883955e-03  0 
 2.514317e-03  -6.860033e-03  0 
 2.603124e-03  -7.547772e-03  0 
 3.100902e-03  -8.054043e-03  0 
 2.962788e-03  -8.109042e-03  0 
 3.306507e-03  -8.292514e-03  0 
 3.991986e-03  -8.363119e-03  0 
 2.821108e-03  -7.994699e-03  0 
 2.896909e-03  -7.884489e-03  0 
 2.939915e-03  -7.837811e-03  0 
 2.526065e-03  -7.650469e-03  0 
 1.966793e-03  -7.240474e-03  0 
 2.692050e-03  -7.630865e-03  0 
 2.574092e-03  -6.936810e-03  0 
 1.431249e-03  -5.727002e-03  0 
 2.174061e-03  -4.795021e-03  0 
 3.117022e-03  -7.612100e-03  0 
 3.636231e-03  -7.875951e-03  0 
 4.186296e-03  -7.688978e-03  0 
 3.461075e-03  -7.167508e-03  0 
 3.017152e-03  -7.983257e-03  0 
 3.101890e-03  -7.951471e-03  0 
 2.938357e-03  -7.911346e-03  0 
 2.964236e-03  -7.843161e-03  0 
 3.036949e-03  -7.884271e-03  0 
 3.078055e-03  -7.837590e-03  0 
 2.976968e-03  -7.808804e-03  0 
 2.900313e-03  -8.011512e-03  0 
 6.029990e-03  -4.921487e-03  0 
 6.832003e-03  -5.841935e-03  0 
VECTORS displacement_ITER20 FLOAT
 2.087348e-03  -7.211473e-03  0 
 2.349427e-03  -7.635788e-03  0 
 1.897665e-03  -5.156567e-03  0 
 1.987774e-03  -6.195996e-03  0 
 2.113546e-03  -7.049265e-03  0 
 2.162894e-03  -7.105300e-03  0 
 3.043664e-03  -7.294015e-03  0 
 4.082947e-03  -7.366542e-03  0 
 2.209215e-03  -7.179570e-03  0 
 2.286723e-03  -7.257486e-03  0 
 2.330651e-03  -7.400200e-03  0 
 1.794179e-03  -6.726379e-03  0 
 1.789172e-03  -7.078595e-03  0 
 1.976356e-03  -6.491251e-03  0 
 1.960670e-03  -5.806092e-03  0 
 1.378290e-03  -5.615186e-03  0 
 2.051404e-03  -4.199437e-03  0 
 2.775952e-03  -6.254202e-03  0 
 3.554337e-03  -6.638805e-03  0 
 4.371233e-03  -6.347501e-03  0 
 3.302170e-03  -5.585485e-03  0 
 2.160589e-03  -7.112713e-03  0 
 2.114193e-03  -7.115758e-03  0 
 2.198009e-03  -7.163876e-03  0 
 2.209308e-03  -7.277374e-03  0 
 2.147559e-03  -7.181795e-03  0 
 2.095108e-03  -7.332774e-03  0 
 2.186564e-03  -7.433497e-03  0 
 2.176102e-03  -7.123479e-03  0 
 5.687849e-03  -4.165995e-03  0 
 6.388996e-03  -5.199737e-03  0 
VECTORS displacement_ITER21 FLOAT
 1.910103e-03  -7.488104e-03  0 
 2.169486e-03  -7.252053e-03  0 
 1.719703e-03  -4.590117e-03  0 
 1.810604e-03  -6.051776e-03  0 
 2.259453e-03  -7.319379e-03  0 
 2.148298e-03  -7.378124e-03  0 
 3.290031e-03  -7.573855e-03  0 
 4.754033e-03  -7.648361e-03  0 
 2.031956e-03  -7.290668e-03  0 
 2.108746e-03  -7.204252e-03  0 
 2.151831e-03  -7.182712e-03  0 
 1.792867e-03  -6.793052e-03  0 
 1.569041e-03  -7.058465e-03  0 
 1.897090e-03  -6.487741e-03  0 
 1.919499e-03  -5.597871e-03  0 
 1.359514e-03  -5.420513e-03  0 
 2.130914e-03  -3.779428e-03  0 
 2.928107e-03  -6.102009e-03  0 
 4.018122e-03  -6.632390e-03  0 
 5.155106e-03  -6.217049e-03  0 
 3.672993e-03  -5.164750e-03  0 
 2.195715e-03  -7.269885e-03  0 
 2.261336e-03  -7.241622e-03  0 
 2.133262e-03  -7.215301e-03  0 
 2.157327e-03  -7.171242e-03  0 
 2.211530e-03  -7.193799e-03  0 
 2.239962e-03  -7.173811e-03  0 
 2.165674e-03  -7.162329e-03  0 
 2.096951e-03  -7.297422e-03  0 
 5.729652e-03  -4.460815e-03  0 
 6.248475e-03  -5.298083e-03  0 
VECTORS displacement_ITER22 FLOAT
 2.115087e-03  -7.312038e-03  0 
 2.375083e-03  -7.007681e-03  0 
 1.921223e-03  -5.122779e-03  0 
 2.013886e-03  -6.230860e-03  0 
 2.495721e-03  -7.135402e-03  0 
 2.371072e-03  -7.197798e-03  0 
 3.139518e-03  -7.399902e-03  0 
 4.248283e-03  -7.475979e-03  0 
 2.238699e-03  -7.095614e-03  0 
 2.316146e-03  -6.993034e-03  0 
 2.358730e-03  -6.955801e-03  0 
 1.963129e-03  -6.466558e-03  0 
 1.014178e-03  -6.041338e-03  0 
 2.162231e-03  -6.372693e-03  0 
 2.129518e-03  -5.414263e-03  0 
 9.848643e-04  -4.218073e-03  0 
 1.942315e-03  -2.873562e-03  0 
 2.854939e-03  -6.290132e-03  0 
 3.685058e-03  -6.700086e-03  0 
 4.555516e-03  -6.389481e-03  0 
 3.417017e-03  -5.578012e-03  0 
 2.423659e-03  -7.078209e-03  0 
 2.498635e-03  -7.046165e-03  0 
 2.351862e-03  -7.014075e-03  0 
 2.377248e-03  -6.955478e-03  0 
 2.442406e-03  -6.988915e-03  0 
 2.478323e-03  -6.954140e-03  0 
 2.388578e-03  -6.931046e-03  0 
 2.313806e-03  -7.108149e-03  0 
 5.565616e-03  -4.193193e-03  0 
 6.127303e-03  -4.954064e-03  0 
VECTORS displacement_ITER23 FLOAT
 2.466210e-03  -6.237225e-03  0 
 2.729120e-03  -6.828575e-03  0 
 2.269916e-03  -4.894303e-03  0 
 2.363657e-03  -5.579412e-03  0 
 2.402179e-03  -6.055583e-03  0 
 2.501132e-03  -6.120174e-03  0 
 3.066418e-03  -6.326083e-03  0 
 3.751472e-03  -6.402883e-03  0 
 2.592090e-03  -6.242097e-03  0 
 2.671133e-03  -6.363869e-03  0 
 2.713761e-03  -6.551879e-03  0 
 2.174907e-03  -5.621200e-03  0 
 1.412333e-03  -5.437170e-03  0 
 2.466591e-03  -5.544394e-03  0 
 2.489539e-03  -4.803789e-03  0 
 1.483834e-03  -3.821680e-03  0 
 2.404686e-03  -2.558938e-03  0 
 2.874639e-03  -5.648356e-03  0 
 3.394349e-03  -5.913736e-03  0 
 3.946513e-03  -5.727329e-03  0 
 3.218570e-03  -5.204628e-03  0 
 2.486240e-03  -6.159184e-03  0 
 2.404792e-03  -6.168578e-03  0 
 2.552359e-03  -6.241640e-03  0 
 2.560026e-03  -6.399806e-03  0 
 2.465727e-03  -6.270537e-03  0 
 2.389964e-03  -6.472431e-03  0 
 2.528573e-03  -6.601925e-03  0 
 2.533682e-03  -6.168083e-03  0 
 5.609962e-03  -3.235681e-03  0 
 6.322062e-03  -4.175575e-03  0 
VECTORS displacement_ITER24 FLOAT
 2.418870e-03  -5.764467e-03  0 
 2.680450e-03  -6.575237e-03  0 
 2.222038e-03  -4.301057e-03  0 
 2.316220e-03  -5.046620e-03  0 
 2.241942e-03  -5.577241e-03  0 
 2.398249e-03  -5.644599e-03  0 
 3.080361e-03  -5.854773e-03  0 
 3.827350e-03  -5.932044e-03  0 
 2.545381e-03  -5.823500e-03  0 
 2.624291e-03  -6.000883e-03  0 
 2.666125e-03  -6.244314e-03  0 
 2.043107e-03  -5.192975e-03  0 
 1.334178e-03  -5.132744e-03  0 
 2.351345e-03  -5.081157e-03  0 
 2.366125e-03  -4.379474e-03  0 
 1.453168e-03  -3.648171e-03  0 
 2.355917e-03  -2.360277e-03  0 
 2.874636e-03  -5.114571e-03  0 
 3.439907e-03  -5.401073e-03  0 
 4.038880e-03  -5.196585e-03  0 
 3.250535e-03  -4.631843e-03  0 
 2.366796e-03  -5.723549e-03  0 
 2.245203e-03  -5.742637e-03  0 
 2.467727e-03  -5.843393e-03  0 
 2.470811e-03  -6.055551e-03  0 
 2.336830e-03  -5.885728e-03  0 
 2.233525e-03  -6.146985e-03  0 
 2.428713e-03  -6.313467e-03  0 
 2.453867e-03  -5.727844e-03  0 
 5.588188e-03  -2.846805e-03  0 
 6.276097e-03  -3.789952e-03  0 
VECTORS displacement_ITER25 FLOAT
 2.441234e-03  -5.512665e-03  0 
 2.703710e-03  -6.892981e-03  0 
 2.242914e-03  -4.183949e-03  0 
 2.337886e-03  -4.862303e-03  0 
 1.977515e-03  -5.319360e-03  0 
 2.278635e-03  -5.389732e-03  0 
 3.035442e-03  -5.604123e-03  0 
 3.716328e-03  -5.682497e-03  0 
 2.569145e-03  -5.712950e-03  0 
 2.648393e-03  -6.033740e-03  0 
 2.689893e-03  -6.419855e-03  0 
 1.841992e-03  -4.940404e-03  0 
 9.510461e-04  -4.812206e-03  0 
 2.225820e-03  -4.888895e-03  0 
 2.172688e-03  -4.256053e-03  0 
 1.205359e-03  -3.483808e-03  0 
 2.058547e-03  -2.562739e-03  0 
 2.844080e-03  -4.932199e-03  0 
 3.360755e-03  -5.195779e-03  0 
 3.910443e-03  -5.010074e-03  0 
 3.186102e-03  -4.491346e-03  0 
 2.204143e-03  -5.570777e-03  0 
 1.981521e-03  -5.615813e-03  0 
 2.393677e-03  -5.785010e-03  0 
 2.385542e-03  -6.135250e-03  0 
 2.149622e-03  -5.861686e-03  0 
 1.975916e-03  -6.273335e-03  0 
 2.316530e-03  -6.536714e-03  0 
 2.392250e-03  -5.561874e-03  0 
 5.579290e-03  -2.691608e-03  0 
 6.305003e-03  -3.677703e-03  0 
VECTORS displacement_ITER26 FLOAT
 2.743943e-03  -5.434137e-03  0 
 3.004549e-03  -6.313090e-03  0 
 2.545050e-03  -3.966826e-03  0 
 2.640549e-03  -4.714661e-03  0 
 2.525245e-03  -5.234297e-03  0 
 2.705100e-03  -5.307950e-03  0 
 3.408874e-03  -5.527354e-03  0 
 4.161710e-03  -5.606630e-03  0 
 2.872414e-03  -5.508924e-03  0 
 2.951126e-03  -5.705543e-03  0 
 2.991565e-03  -5.966566e-03  0 
 2.230434e-03  -4.897836e-03  0 
 1.317915e-03  -4.663378e-03  0 
 2.513866e-03  -4.859893e-03  0 
 2.398302e-03  -4.308139e-03  0 
 1.529542e-03  -3.665995e-03  0 
 2.233998e-03  -3.059509e-03  0 
 3.201367e-03  -4.783284e-03  0 
 3.770845e-03  -5.071202e-03  0 
 4.375193e-03  -4.864200e-03  0 
 3.580554e-03  -4.297019e-03  0 
 2.668531e-03  -5.401228e-03  0 
 2.530424e-03  -5.422222e-03  0 
 2.782385e-03  -5.535848e-03  0 
 2.784118e-03  -5.766963e-03  0 
 2.636118e-03  -5.582630e-03  0 
 2.524232e-03  -5.865165e-03  0 
 2.738799e-03  -6.042901e-03  0 
 2.769831e-03  -5.405230e-03  0 
 5.892022e-03  -2.564820e-03  0 
 6.584143e-03  -3.366671e-03  0 
VECTORS displacement_ITER27 FLOAT
 2.713927e-03  -4.880559e-03  0 
 2.975110e-03  -6.000600e-03  0 
 2.512821e-03  -3.518813e-03  0 
 2.609350e-03  -4.213769e-03  0 
 2.374367e-03  -4.677470e-03  0 
 2.615760e-03  -4.752910e-03  0 
 3.324928e-03  -4.974036e-03  0 
 4.025490e-03  -5.054223e-03  0 
 2.843974e-03  -5.015512e-03  0 
 2.923104e-03  -5.273599e-03  0 
 2.962921e-03  -5.594841e-03  0 
 2.120652e-03  -4.357089e-03  0 
 1.291781e-03  -4.076305e-03  0 
 2.410925e-03  -4.365853e-03  0 
 2.258672e-03  -3.911746e-03  0 
 1.448269e-03  -3.376979e-03  0 
 2.085684e-03  -3.041860e-03  0 
 3.128990e-03  -4.284228e-03  0 
 3.659781e-03  -4.553668e-03  0 
 4.225208e-03  -4.361122e-03  0 
 3.481313e-03  -3.830915e-03  0 
 2.560996e-03  -4.889457e-03  0 
 2.379825e-03  -4.921420e-03  0 
 2.712447e-03  -5.064580e-03  0 
 2.709603e-03  -5.354859e-03  0 
 2.518236e-03  -5.126037e-03  0 
 2.376938e-03  -5.472801e-03  0 
 2.652979e-03  -5.691330e-03  0 