# vtk DataFile Version 3.1
this is an vtk file created by FEMAC
ASCII
DATASET UNSTRUCTURED_GRID
POINTS 31 FLOAT
1.000000 2.000000 0.000000
1.000000 3.000000 0.000000
0.750000 2.000000 0.000000
1.000000 2.250000 0.000000
1.000000 2.500000 0.000000
1.000000 2.750000 0.000000
1.250000 2.000000 0.000000
1.500000 2.000000 0.000000
1.250000 3.000000 0.000000
1.500000 3.000000 0.000000
0.660302 2.785301 0.000000
0.660045 2.212404 0.000000
0.825570 2.361866 0.000000
0.825957 2.628272 0.000000
0.594871 2.497465 0.000000
0.847252 2.832715 0.000000
0.847123 2.164854 0.000000
1.255000 1.805000 0.000000
1.556014 2.528684 0.000000
1.187778 2.667801 0.000000
1.187083 2.332917 0.000000
1.225000 2.500000 0.000000
1.340769 2.803850 0.000000
1.339859 2.197089 0.000000
1.387500 2.413333 0.000000
1.391667 2.590972 0.000000
1.548715 2.715781 0.000000
1.155709 2.844330 0.000000
1.155388 2.156001 0.000000
1.171305 3.165198 0.000000
1.384851 3.278430 0.000000
CELLS 42 168 
3 4 13 12
3 14 11 12
3 12  3  4
3 5 13  4
3 14 13 10
3 12 13 14
3 15  5  1
3 2 16 11
3 15 13  5
3 10 13 15
3 12 16  3
3 12 11 16
3 17  7  6
3 6  0 17
3 4 19  5
3 20  4  3
3 21 19  4
3 20 21  4
3 20 24 21
3 25 19 21
3 23  6  7
3 8 22  9
3 25 22 19
3 23 24 20
3 25 24 18
3 21 24 25
3 9 22 26
3 25 18 26
3 26 22 25
3 5 27  1
3 27  8  1
3 27  5 19
3 28  3  0
3 6 28  0
3 3 28 20
3 27 22  8
3 19 22 27
3 23 28  6
3 23 20 28
3 1  8 29
3 30  8  9
3 29  8 30
CELL_TYPES 42
5 5 5 5 5 5 5 5 5 5 5 5 5 5 5 5 5 5 5 5 5 5 5 5 5 5 5 5 5 5 5 5 5 5 5 5 5 5 5 5 5 5 
POINT_DATA 31
VECTORS displacement_ITER1 FLOAT
 -4.051679e-02  4.659614e-06  0 
 -1.687250e-02  2.336736e-02  0 
 -3.190302e-02  2.716111e-02  0 
 -2.817058e-02  2.337447e-02  0 
 -2.442755e-02  2.337686e-02  0 
 -2.066763e-02  2.337412e-02  0 
 -4.054535e-02  -1.443141e-02  0 
 -4.056747e-02  -2.887591e-02  0 
 -1.685960e-02  6.635498e-03  0 
 -1.685703e-02  -1.008167e-02  0 
 -2.012862e-02  2.851183e-02  0 
 -2.874530e-02  2.849631e-02  0 
 -2.649806e-02  2.600378e-02  0 
 -2.249866e-02  2.600312e-02  0 
 -2.446088e-02  2.947982e-02  0 
 -1.941565e-02  2.569156e-02  0 
 -2.944976e-02  2.569587e-02  0 
 -5.180305e-02  -1.474287e-02  0 
 -3.519950e-02  -2.526649e-02  0 
 -2.302632e-02  1.105690e-02  0 
 -3.092105e-02  4.077167e-03  0 
 -2.835033e-02  5.989940e-03  0 
 -2.025385e-02  4.898682e-05  0 
 -4.112045e-02  -1.533471e-02  0 
 -3.579613e-02  -9.902016e-03  0 
 -2.755408e-02  -5.756291e-03  0 
 -2.360236e-02  -1.714346e-02  0 
 -1.938645e-02  1.313535e-02  0 
 -3.882968e-02  -2.718329e-03  0 
 -5.817572e-03  1.189376e-02  0 
 1.752573e-03  -2.384839e-03  0 
VECTORS displacement_ITER2 FLOAT
 1.174270e-03  -4.852406e-03  0 
 -2.591351e-03  -7.856526e-03  0 
 -9.811408e-03  -6.009730e-03  0 
 -8.056971e-03  -7.782101e-03  0 
 -6.300708e-03  -7.795300e-03  0 
 -4.497599e-03  -7.826832e-03  0 
 1.173013e-03  1.750148e-03  0 
 1.165150e-03  8.370170e-03  0 
 -2.548114e-03  -2.726822e-02  0 
 -2.531232e-03  -4.662332e-02  0 
 -4.228860e-03  -5.325370e-03  0 
 -8.321148e-03  -5.385328e-03  0 
 -7.274650e-03  -6.552822e-03  0 
 -5.381673e-03  -6.546453e-03  0 
 -6.307812e-03  -4.897895e-03  0 
 -3.880970e-03  -6.687408e-03  0 
 -8.645321e-03  -6.705033e-03  0 
 6.342260e-03  1.882155e-03  0 
 -1.211257e-02  -3.927976e-02  0 
 -7.453403e-03  -1.689575e-02  0 
 -1.138979e-02  -1.149369e-02  0 
 -8.654558e-03  -1.562758e-02  0 
 -5.928662e-03  -2.911804e-02  0 
 -6.836350e-03  -4.725321e-03  0 
 -1.212296e-02  -2.265042e-02  0 
 -7.736905e-03  -2.554332e-02  0 
 -4.360567e-03  -3.725922e-02  0 
 -5.263755e-03  -1.729660e-02  0 
 -5.891128e-03  -5.550291e-03  0 
 1.025275e-02  -2.118809e-02  0 
 1.902984e-02  -3.774040e-02  0 
VECTORS displacement_ITER3 FLOAT
 6.077679e-03  7.157437e-04  0 
 2.999800e-04  2.180375e-04  0 
 -2.213563e-04  4.949165e-04  0 
 -6.078779e-05  3.393402e-04  0 
 5.077545e-05  3.411750e-04  0 
 1.613884e-04  3.220411e-04  0 
 6.085039e-03  -9.846539e-04  0 
 6.097076e-03  -2.717574e-03  0 
 3.572409e-04  4.201131e-04  0 
 3.729295e-04  8.610002e-04  0 
 1.737869e-04  4.980478e-04  0 
 -9.289339e-05  5.276170e-04  0 
 -1.021990e-05  4.265464e-04  0 
 1.044053e-04  4.169655e-04  0 
 4.978962e-05  5.358926e-04  0 
 1.874280e-04  3.926813e-04  0 
 -1.121780e-04  4.298314e-04  0 
 4.748263e-03  -1.003812e-03  0 
 -9.804237e-03  -9.719557e-03  0 
 -1.225248e-03  2.461129e-04  0 
 -1.953374e-03  -3.290034e-03  0 
 -3.111402e-03  -2.156180e-03  0 
 -1.382458e-03  5.736997e-05  0 
 8.889807e-04  -2.630800e-03  0 
 -6.205532e-03  -5.821423e-03  0 
 -5.449787e-03  -3.931836e-03  0 
 -6.417623e-03  -6.279140e-03  0 
 -3.068649e-04  6.747377e-04  0 
 1.912852e-03  -1.294336e-03  0 
 1.234669e-04  2.946201e-04  0 
 -9.036547e-05  6.288379e-04  0 
VECTORS displacement_ITER4 FLOAT
 -1.687084e-04  -3.166643e-03  0 
 -2.035962e-04  4.729447e-04  0 
 -4.230133e-04  8.216877e-04  0 
 -2.878848e-04  5.956059e-04  0 
 -1.984514e-04  6.165820e-04  0 
 -1.459029e-04  6.057579e-04  0 
 -1.884789e-04  -1.598829e-03  0 
 -2.014172e-04  -8.719550e-05  0 
 -2.464268e-04  1.167121e-03  0 
 -2.103308e-04  2.146114e-03  0 
 -1.702885e-04  6.654590e-04  0 
 -3.433627e-04  8.053730e-04  0 
 -2.443311e-04  6.839199e-04  0 
 -1.740286e-04  6.535377e-04  0 
 -2.114645e-04  7.482982e-04  0 
 -1.716398e-04  6.003065e-04  0 
 -3.647893e-04  7.163819e-04  0 
 1.007366e-03  -1.569580e-03  0 
 -1.657082e-03  -3.347083e-03  0 
 -1.284276e-05  5.527221e-04  0 
 -1.009062e-03  -4.041151e-04  0 
 -6.901252e-04  -1.200535e-04  0 
 3.646114e-04  4.564396e-04  0 
 -2.032786e-03  -1.336220e-03  0 
 -1.567968e-03  -1.503724e-03  0 
 -6.579850e-04  -9.210013e-04  0 
 -4.038069e-04  -1.722256e-03  0 
 1.354363e-04  5.888650e-04  0 
 -1.371157e-03  -1.489214e-03  0 
 -8.347593e-04  9.262185e-04  0 
 -1.325289e-03  1.610318e-03  0 
VECTORS displacement_ITER5 FLOAT
 -6.335141e-04  -1.129499e-03  0 
 4.089340e-04  -1.303426e-04  0 
 -7.923130e-04  3.493398e-04  0 
 -3.600372e-04  -1.871590e-04  0 
 2.909408e-05  -1.284863e-04  0 
 3.357747e-04  -8.641505e-05  0 
 -6.530640e-04  1.561304e-03  0 
 -6.688767e-04  4.200376e-03  0 
 3.368390e-04  -1.207399e-04  0 
 3.494347e-04  8.039574e-05  0 
 3.485056e-04  2.685599e-04  0 
 -4.610721e-04  4.525114e-04  0 
 -1.719908e-04  1.283776e-04  0 
 1.993574e-04  1.047879e-04  0 
 1.964807e-05  4.514401e-04  0 
 3.814209e-04  2.985535e-05  0 
 -5.432205e-04  1.403477e-04  0 
 1.421542e-03  1.612163e-03  0 
 8.006048e-04  -2.198621e-03  0 
 5.350271e-04  -2.134352e-04  0 
 -6.746458e-04  5.218461e-04  0 
 2.309449e-04  8.662255e-06  0 
 1.089143e-03  -6.890769e-04  0 
 -1.375177e-03  1.255352e-03  0 
 2.138475e-05  -3.734241e-04  0 
 9.146865e-04  -7.076234e-04  0 
 1.580655e-03  -1.494900e-03  0 
 6.721033e-04  -3.681833e-04  0 
 -1.076368e-03  2.699722e-04  0 
 2.416255e-04  -1.201898e-04  0 
 1.015432e-04  -6.305866e-05  0 
VECTORS displacement_ITER6 FLOAT
 -2.085800e-04  -2.653704e-04  0 
 9.948483e-05  -6.630852e-05  0 
 -4.589084e-04  1.404406e-04  0 
 -1.750381e-04  -2.164461e-04  0 
 5.285381e-05  -1.550459e-04  0 
 1.894639e-04  -9.208507e-05  0 
 -2.324344e-04  -2.246651e-05  0 
 -2.513773e-04  1.451796e-04  0 
 4.132581e-05  -4.048972e-04  0 
 6.091867e-05  -6.187272e-04  0 
 1.908313e-04  1.958069e-05  0 
 -2.353730e-04  1.802144e-04  0 
 -5.553475e-05  -2.045254e-05  0 
 1.425201e-04  -3.316837e-05  0 
 5.052384e-05  1.497507e-04  0 
 1.901407e-04  -7.649968e-05  0 
 -2.888437e-04  -1.231272e-05  0 
 -7.657525e-05  -1.958955e-05  0 
 -6.821883e-04  -1.329966e-03  0 
 -2.391860e-05  -2.624167e-05  0 
 -6.032448e-04  4.026868e-05  0 
 -3.237932e-04  7.745281e-05  0 
 2.165543e-04  -4.368974e-04  0 
 -1.070612e-03  3.252453e-04  0 
 -8.915270e-04  -5.302675e-05  0 
 -1.449418e-04  -2.266989e-04  0 
 3.315566e-04  -8.705461e-04  0 
 1.249195e-04  -1.907942e-04  0 
 -4.915853e-04  -2.168570e-04  0 
 2.131521e-04  -2.901074e-04  0 
 2.863181e-04  -5.831101e-04  0 
VECTORS displacement_ITER7 FLOAT
 -4.721655e-04  -9.549227e-04  0 
 9.141184e-05  -3.240408e-04  0 
 -5.617380e-04  -1.206998e-04  0 
 -2.355192e-04  -4.068226e-04  0 
 -3.796681e-05  -3.474747e-04  0 
 7.947877e-05  -3.077687e-04  0 
 -5.122037e-04  -1.360488e-04  0 
 -5.428240e-04  6.058853e-04  0 
 4.228184e-05  -4.934829e-04  0 
 5.400356e-05  -5.593824e-04  0 
 9.522594e-05  -1.720907e-04  0 
 -2.666133e-04  -7.140378e-05  0 
 -1.258593e-04  -2.370398e-04  0 
 3.570272e-05  -2.432021e-04  0 
 -3.759049e-05  -9.118390e-05  0 
 9.207008e-05  -2.685884e-04  0 
 -3.219457e-04  -2.545001e-04  0 
 8.695264e-05  -1.323183e-04  0 
 -8.630058e-05  -6.996198e-04  0 
 2.434764e-06  -2.571401e-04  0 
 -4.793574e-04  -5.504757e-05  0 
 -1.590957e-04  -1.119394e-04  0 
 2.028336e-04  -5.018794e-04  0 
 -1.022187e-03  1.522559e-04  0 
 -4.142611e-04  -7.269629e-05  0 
 6.554247e-05  -2.558805e-04  0 
 4.159830e-04  -5.789850e-04  0 
 1.019026e-04  -3.937206e-04  0 
 -6.596006e-04  -4.107420e-04  0 
 1.118244e-04  -4.318374e-04  0 
 1.178652e-04  -5.736255e-04  0 
VECTORS displacement_ITER8 FLOAT
 -3.224666e-04  -3.246098e-04  0 
 -5.396436e-06  -1.837156e-04  0 
 -2.101947e-04  -1.219533e-04  0 
 -7.090554e-05  -2.495016e-04  0 
 -1.687533e-05  -1.827047e-04  0 
 -2.904504e-05  -1.502935e-04  0 
 -3.767463e-04  -4.345557e-04  0 
 -4.290539e-04  -6.397164e-04  0 
 -2.028253e-05  -3.693750e-04  0 
 -8.576580e-06  -4.971780e-04  0 
 -1.473500e-05  -1.600280e-04  0 
 -7.332217e-05  -1.154091e-04  0 
 -2.460232e-05  -1.715934e-04  0 
 -9.873844e-06  -1.636621e-04  0 
 -6.600228e-06  -1.496430e-04  0 
 -3.515320e-05  -1.499539e-04  0 
 -1.061847e-04  -1.768383e-04  0 
 -5.009876e-04  -4.599012e-04  0 
 -1.848972e-04  -6.975264e-04  0 
 -4.964550e-05  -2.625555e-04  0 
 -1.605499e-04  -3.162359e-04  0 
 -1.001417e-04  -3.056171e-04  0 
 -2.030117e-06  -4.095285e-04  0 
 -3.232008e-04  -4.530486e-04  0 
 -2.094525e-04  -4.586862e-04  0 
 -8.940390e-05  -4.406038e-04  0 
 -2.154333e-05  -6.096210e-04  0 
 -1.603935e-05  -2.803984e-04  0 
 -2.499305e-04  -3.865327e-04  0 
 8.355484e-05  -3.092462e-04  0 
 1.345592e-04  -4.715348e-04  0 
VECTORS displacement_ITER9 FLOAT
 -2.373546e-04  -1.966220e-04  0 
 5.567602e-06  -1.287659e-04  0 
 -1.088364e-04  -6.612119e-05  0 
 -5.920497e-05  -1.122930e-04  0 
 -2.157587e-05  -8.585824e-05  0 
 1.516350e-06  -9.364370e-05  0 
 -3.029389e-04  -2.907612e-04  0 
 -3.686991e-04  -4.785262e-04  0 
 -1.297294e-05  -3.376185e-04  0 
 -1.716107e-05  -5.128958e-04  0 
 -1.214098e-05  -5.784543e-05  0 
 -5.616216e-05  -3.577794e-05  0 
 -3.487729e-05  -6.286799e-05  0 
 -1.288434e-05  -6.818368e-05  0 
 -2.220387e-05  -3.570041e-05  0 
 -2.736391e-06  -9.130396e-05  0 
 -8.514643e-05  -6.424104e-05  0 
 -4.121681e-04  -3.257181e-04  0 
 -2.028029e-04  -5.302023e-04  0 
 -5.188446e-05  -2.288775e-04  0 
 -1.217899e-04  -2.503944e-04  0 
 -9.154807e-05  -2.709671e-04  0 
 -6.209517e-05  -3.490230e-04  0 
 -2.122463e-04  -3.742545e-04  0 
 -1.637271e-04  -4.190725e-04  0 
 -1.285421e-04  -3.933738e-04  0 
 -1.385913e-04  -5.122743e-04  0 
 -2.664387e-05  -2.197120e-04  0 
 -1.935443e-04  -2.537839e-04  0 
 1.058713e-04  -2.685928e-04  0 
 1.670025e-04  -4.277325e-04  0 
VECTORS displacement_ITER10 FLOAT
 -2.013402e-04  -1.540942e-04  0 
 1.797893e-05  -1.408877e-04  0 
 -1.120094e-04  -8.001512e-05  0 
 -6.636207e-05  -1.123397e-04  0 
 -2.665175e-05  -9.177245e-05  0 
 2.911250e-07  -9.576357e-05  0 
 -2.705117e-04  -2.955237e-04  0 
 -3.346438e-04  -4.960673e-04  0 
 7.295017e-07  -3.378877e-04  0 
 -3.121440e-06  -5.080048e-04  0 
 -2.714197e-06  -4.922284e-05  0 
 -6.201594e-05  -4.636462e-05  0 
 -4.330299e-05  -6.616350e-05  0 
 -1.379787e-05  -6.972195e-05  0 
 -2.553724e-05  -3.358267e-05  0 
 -7.943471e-07  -8.511410e-05  0 
 -9.128844e-05  -6.679819e-05  0 
 -4.094096e-04  -3.389463e-04  0 
 -1.910352e-04  -4.562017e-04  0 
 -5.569291e-05  -2.098284e-04  0 
 -1.271304e-04  -2.184227e-04  0 
 -9.679723e-05  -2.328188e-04  0 
 -4.776912e-05  -3.364621e-04  0 
 -2.243635e-04  -3.247831e-04  0 
 -1.751198e-04  -3.480534e-04  0 
 -1.201115e-04  -3.388755e-04  0 
 -9.903822e-05  -4.662206e-04  0 
 -1.883498e-05  -2.175267e-04  0 
 -1.757475e-04  -2.321595e-04  0 
 1.082649e-04  -2.746195e-04  0 
 1.659612e-04  -4.187496e-04  0 
VECTORS displacement_ITER11 FLOAT
 -2.026060e-04  -1.459681e-04  0 
 1.036420e-05  -1.359213e-04  0 
 -1.219244e-04  -8.880620e-05  0 
 -6.803584e-05  -1.180638e-04  0 
 -2.189803e-05  -9.325140e-05  0 
 3.547136e-06  -9.182959e-05  0 
 -2.732978e-04  -2.929987e-04  0 
 -3.343592e-04  -4.666251e-04  0 
 -3.501629e-06  -3.335802e-04  0 
 -6.027494e-06  -5.004575e-04  0 
 -1.338365e-06  -5.374305e-05  0 
 -6.241824e-05  -4.222409e-05  0 
 -4.004813e-05  -6.666207e-05  0 
 -7.743286e-06  -6.930834e-05  0 
 -1.953160e-05  -3.042915e-05  0 
 -6.489299e-07  -8.590155e-05  0 
 -9.478671e-05  -7.105486e-05  0 
 -4.093670e-04  -3.422454e-04  0 
 -1.568316e-04  -4.302917e-04  0 
 -4.572122e-05  -2.049222e-04  0 
 -1.184231e-04  -2.157991e-04  0 
 -8.192426e-05  -2.187498e-04  0 
 -3.603453e-05  -3.296681e-04  0 
 -2.338336e-04  -3.566470e-04  0 
 -1.691651e-04  -3.382650e-04  0 
 -8.752458e-05  -3.149229e-04  0 
 -5.413555e-05  -4.161823e-04  0 
 -1.578915e-05  -2.137092e-04  0 
 -1.802574e-04  -2.340347e-04  0 
 1.047186e-04  -2.715566e-04  0 
 1.628918e-04  -4.160210e-04  0 
VECTORS displacement_ITER12 FLOAT
 -2.020173e-04  -1.473732e-04  0 
 1.022855e-05  -1.345532e-04  0 
 -1.194687e-04  -8.724522e-05  0 
 -6.697712e-05  -1.176415e-04  0 
 -2.249832e-05  -9.285277e-05  0 
 2.453247e-06  -9.288652e-05  0 
 -2.729385e-04  -2.939600e-04  0 
 -3.335023e-04  -4.635070e-04  0 
 -4.549117e-06  -3.329951e-04  0 
 -7.230631e-06  -5.012451e-04  0 
 -1.486737e-06  -5.203091e-05  0 
 -6.201808e-05  -4.250899e-05  0 
 -3.967653e-05  -6.719966e-05  0 
 -9.277869e-06  -7.006049e-05  0 
 -2.010550e-05  -3.282885e-05  0 
 -1.249849e-06  -8.698050e-05  0 
 -9.363091e-05  -7.065385e-05  0 
 -4.080951e-04  -3.438101e-04  0 
 -1.691688e-04  -4.520665e-04  0 
 -4.948772e-05  -2.038452e-04  0 
 -1.209046e-04  -2.161138e-04  0 
 -8.987467e-05  -2.202301e-04  0 
 -3.827857e-05  -3.328077e-04  0 
 -2.327002e-04  -3.477637e-04  0 
 -1.744003e-04  -3.310362e-04  0 
 -9.924333e-05  -3.237119e-04  0 
 -6.722685e-05  -4.452428e-04  0 
 -1.732533e-05  -2.134064e-04  0 
 -1.789582e-04  -2.337231e-04  0 
 1.044908e-04  -2.698073e-04  0 
 1.622891e-04  -4.158200e-04  0 
VECTORS displacement_ITER13 FLOAT
 -2.021324e-04  -1.473211e-04  0 
 1.019409e-05  -1.342732e-04  0 
 -1.196762e-04  -8.726064e-05  0 
 -6.706148e-05  -1.176557e-04  0 
 -2.240643e-05  -9.292431e-05  0 
 2.384344e-06  -9.289024e-05  0 
 -2.730952e-04  -2.938833e-04  0 
 -3.337298e-04  -4.633779e-04  0 
 -4.695383e-06  -3.327573e-04  0 
 -7.269055e-06  -5.011362e-04  0 
 -1.394272e-06  -5.230366e-05  0 
 -6.200298e-05  -4.235817e-05  0 
 -3.970728e-05  -6.710489e-05  0 
 -9.232288e-06  -7.022845e-05  0 
 -2.026928e-05  -3.277004e-05  0 
 -1.315501e-06  -8.705897e-05  0 
 -9.371502e-05  -7.062920e-05  0 
 -4.081929e-04  -3.437821e-04  0 
 -1.695633e-04  -4.521601e-04  0 
 -4.974765e-05  -2.041532e-04  0 
 -1.208550e-04  -2.168452e-04  0 
 -9.016882e-05  -2.212449e-04  0 
 -3.899296e-05  -3.328053e-04  0 
 -2.316632e-04  -3.477052e-04  0 
 -1.741455e-04  -3.320948e-04  0 
 -1.004137e-04  -3.250451e-04  0 
 -6.950663e-05  -4.471275e-04  0 
 -1.761449e-05  -2.132898e-04  0 
 -1.787132e-04  -2.336820e-04  0 
 1.043532e-04  -2.695706e-04  0 
 1.623448e-04  -4.158606e-04  0 
VECTORS displacement_ITER14 FLOAT
 -2.021629e-04  -1.473006e-04  0 
 1.020337e-05  -1.342411e-04  0 
 -1.196988e-04  -8.724637e-05  0 
 -6.704942e-05  -1.176670e-04  0 
 -2.239348e-05  -9.290813e-05  0 
 2.412222e-06  -9.287821e-05  0 
 -2.731071e-04  -2.938998e-04  0 
 -3.337341e-04  -4.633774e-04  0 
 -4.686273e-06  -3.327638e-04  0 
 -7.260418e-06  -5.011280e-04  0 
 -1.404145e-06  -5.228517e-05  0 
 -6.200699e-05  -4.233036e-05  0 
 -3.968197e-05  -6.710435e-05  0 
 -9.215887e-06  -7.020071e-05  0 
 -2.022675e-05  -3.276879e-05  0 
 -1.291095e-06  -8.705702e-05  0 
 -9.371757e-05  -7.062304e-05  0 
 -4.082012e-04  -3.437991e-04  0 
 -1.699203e-04  -4.520998e-04  0 
 -4.979727e-05  -2.039618e-04  0 
 -1.206068e-04  -2.170946e-04  0 
 -9.030825e-05  -2.210023e-04  0 
 -3.892180e-05  -3.326928e-04  0 
 -2.312196e-04  -3.484917e-04  0 
 -1.744579e-04  -3.315039e-04  0 
 -1.004705e-04  -3.245981e-04  0 
 -6.921984e-05  -4.468169e-04  0 
 -1.760633e-05  -2.132175e-04  0 
 -1.786237e-04  -2.337627e-04  0 
 1.043484e-04  -2.695894e-04  0 
 1.623376e-04  -4.158569e-04  0 
CELL_DATA 42
TENSORS element_stresses FLOAT
 5.642236e-03  -1.887732e-02  0 
 -1.887732e-02  -9.728020e-03  0 
 0  0  0 

 2.120935e-03  -1.628758e-03  0 
 -1.628758e-03  7.510916e-05  0 
 0  0  0 

 -1.387981e-02  -3.671996e-02  0 
 -3.671996e-02  9.487164e-02  0 
 0  0  0 

 -2.802344e-03  -2.396862e-02  0 
 -2.396862e-02  -7.209915e-04  0 
 0  0  0 

 1.686925e-03  -6.095055e-02  0 
 -6.095055e-02  -3.505131e-02  0 
 0  0  0 

 -2.254741e-02  -3.165186e-02  0 
 -3.165186e-02  -1.816071e-02  0 
 0  0  0 

 -9.357127e-03  -7.426065e-02  0 
 -7.426065e-02  -1.682588e-01  0 
 0  0  0 

 -6.926148e-02  8.821994e-02  0 
 8.821994e-02  1.444201e-01  0 
 0  0  0 

 2.256351e-02  -3.387372e-02  0 
 -3.387372e-02  -6.752125e-02  0 
 0  0  0 

 -3.177248e-02  -9.985705e-02  0 
 -9.985705e-02  -7.432004e-02  0 
 0  0  0 

 1.754612e-02  -1.762710e-02  0 
 -1.762710e-02  -9.633577e-03  0 
 0  0  0 

 -1.123515e-01  8.627352e-02  0 
 8.627352e-02  -3.235283e-02  0 
 0  0  0 

 -1.878623e-01  6.662854e-03  0 
 6.662854e-03  1.821530e-01  0 
 0  0  0 

 -2.324387e-01  7.624403e-02  0 
 7.624403e-02  1.711266e-01  0 
 0  0  0 

 -2.577674e-04  -3.786877e-04  0 
 -3.786877e-04  -7.721052e-05  0 
 0  0  0 

 -3.689365e-04  -3.051778e-04  0 
 -3.051778e-04  -1.164537e-05  0 
 0  0  0 

 -3.398500e-04  -3.037236e-04  0 
 -3.037236e-04  -1.266887e-04  0 
 0  0  0 

 -2.968147e-04  -2.457472e-04  0 
 -2.457472e-04  1.676251e-05  0 
 0  0  0 

 -3.743140e-04  -2.701014e-04  0 
 -2.701014e-04  4.499149e-06  0 
 0  0  0 

 -1.996199e-04  -3.081564e-04  0 
 -3.081564e-04  -9.229033e-05  0 
 0  0  0 

 -2.559136e-04  -2.729331e-04  0 
 -2.729331e-04  -4.468448e-05  0 
 0  0  0 

 -1.141736e-04  -3.874491e-04  0 
 -3.874491e-04  -3.462569e-04  0 
 0  0  0 

 -2.336117e-04  -3.181247e-04  0 
 -3.181247e-04  -2.673483e-04  0 
 0  0  0 

 -3.769743e-04  -2.368555e-04  0 
 -2.368555e-04  1.110457e-04  0 
 0  0  0 

 -2.696914e-04  -2.551580e-04  0 
 -2.551580e-04  -2.433755e-05  0 
 0  0  0 

 -3.030883e-04  -1.752122e-04  0 
 -1.752122e-04  -3.677803e-05  0 
 0  0  0 

 -1.646098e-04  -3.622315e-04  0 
 -3.622315e-04  -3.568592e-04  0 
 0  0  0 

 -2.444925e-04  -1.900110e-04  0 
 -1.900110e-04  -7.540723e-05  0 
 0  0  0 

 -9.050970e-05  -2.658664e-04  0 
 -2.658664e-04  -2.154655e-04  0 
 0  0  0 

 -2.165703e-04  -4.934224e-04  0 
 -4.934224e-04  -2.304228e-04  0 
 0  0  0 

 -1.600510e-04  -5.192451e-04  0 
 -5.192451e-04  -3.349746e-04  0 
 0  0  0 

 -2.939019e-04  -4.033648e-04  0 
 -4.033648e-04  -2.618811e-04  0 
 0  0  0 

 -3.907013e-04  -1.038254e-04  0 
 -1.038254e-04  1.323980e-06  0 
 0  0  0 

 -3.020006e-04  -1.175716e-04  0 
 -1.175716e-04  -6.074635e-05  0 
 0  0  0 

 -4.473806e-04  -1.620985e-04  0 
 -1.620985e-04  7.155140e-05  0 
 0  0  0 

 -2.038647e-04  -4.488555e-04  0 
 -4.488555e-04  -3.939632e-04  0 
 0  0  0 

 -1.444287e-04  -3.970419e-04  0 
 -3.970419e-04  -2.200647e-04  0 
 0  0  0 

 -4.042203e-04  -1.864037e-04  0 
 -1.864037e-04  -1.139542e-04  0 
 0  0  0 

 -3.393321e-04  -2.114423e-04  0 
 -2.114423e-04  1.123833e-04  0 
 0  0  0 

 -6.408555e-02  -1.249526e-01  0 
 -1.249526e-01  -1.508988e-02  0 
 0  0  0 

 -2.170501e-03  -5.276380e-02  0 
 -5.276380e-02  2.708693e-02  0 
 0  0  0 

 -5.402708e-02  -6.038967e-02  0 
 -6.038967e-02  2.860207e-02  0 
 0  0  0 

TENSORS element_stresses FLOAT
 5.642236e-03  -1.887732e-02  0 
 -1.887732e-02  -9.728020e-03  0 
 0  0  0 

 2.120935e-03  -1.628758e-03  0 
 -1.628758e-03  7.510916e-05  0 
 0  0  0 

 -1.387981e-02  -3.671996e-02  0 
 -3.671996e-02  9.487164e-02  0 
 0  0  0 

 -2.802344e-03  -2.396862e-02  0 
 -2.396862e-02  -7.209915e-04  0 
 0  0  0 

 1.686925e-03  -6.095055e-02  0 
 -6.095055e-02  -3.505131e-02  0 
 0  0  0 

 -2.254741e-02  -3.165186e-02  0 
 -3.165186e-02  -1.816071e-02  0 
 0  0  0 

 -9.357127e-03  -7.426065e-02  0 
 -7.426065e-02  -1.682588e-01  0 
 0  0  0 

 -6.926148e-02  8.821994e-02  0 
 8.821994e-02  1.444201e-01  0 
 0  0  0 

 2.256351e-02  -3.387372e-02  0 
 -3.387372e-02  -6.752125e-02  0 
 0  0  0 

 -3.177248e-02  -9.985705e-02  0 
 -9.985705e-02  -7.432004e-02  0 
 0  0  0 

 1.754612e-02  -1.762710e-02  0 
 -1.762710e-02  -9.633577e-03  0 
 0  0  0 

 -1.123515e-01  8.627352e-02  0 
 8.627352e-02  -3.235283e-02  0 
 0  0  0 

 -1.878623e-01  6.662854e-03  0 
 6.662854e-03  1.821530e-01  0 
 0  0  0 

 -2.324387e-01  7.624403e-02  0 
 7.624403e-02  1.711266e-01  0 
 0  0  0 

 -2.577674e-04  -3.786877e-04  0 
 -3.786877e-04  -7.721052e-05  0 
 0  0  0 

 -3.689365e-04  -3.051778e-04  0 
 -3.051778e-04  -1.164537e-05  0 
 0  0  0 

 -3.398500e-04  -3.037236e-04  0 
 -3.037236e-04  -1.266887e-04  0 
 0  0  0 

 -2.968147e-04  -2.457472e-04  0 
 -2.457472e-04  1.676251e-05  0 
 0  0  0 

 -3.743140e-04  -2.701014e-04  0 
 -2.701014e-04  4.499149e-06  0 
 0  0  0 

 -1.996199e-04  -3.081564e-04  0 
 -3.081564e-04  -9.229033e-05  0 
 0  0  0 

 -2.559136e-04  -2.729331e-04  0 
 -2.729331e-04  -4.468448e-05  0 
 0  0  0 

 -1.141736e-04  -3.874491e-04  0 
 -3.874491e-04  -3.462569e-04  0 
 0  0  0 

 -2.336117e-04  -3.181247e-04  0 
 -3.181247e-04  -2.673483e-04  0 
 0  0  0 

 -3.769743e-04  -2.368555e-04  0 
 -2.368555e-04  1.110457e-04  0 
 0  0  0 

 -2.696914e-04  -2.551580e-04  0 
 -2.551580e-04  -2.433755e-05  0 
 0  0  0 

 -3.030883e-04  -1.752122e-04  0 
 -1.752122e-04  -3.677803e-05  0 
 0  0  0 

 -1.646098e-04  -3.622315e-04  0 
 -3.622315e-04  -3.568592e-04  0 
 0  0  0 

 -2.444925e-04  -1.900110e-04  0 
 -1.900110e-04  -7.540723e-05  0 
 0  0  0 

 -9.050970e-05  -2.658664e-04  0 
 -2.658664e-04  -2.154655e-04  0 
 0  0  0 

 -2.165703e-04  -4.934224e-04  0 
 -4.934224e-04  -2.304228e-04  0 
 0  0  0 

 -1.600510e-04  -5.192451e-04  0 
 -5.192451e-04  -3.349746e-04  0 
 0  0  0 

 -2.939019e-04  -4.033648e-04  0 
 -4.033648e-04  -2.618811e-04  0 
 0  0  0 

 -3.907013e-04  -1.038254e-04  0 
 -1.038254e-04  1.323980e-06  0 
 0  0  0 

 -3.020006e-04  -1.175716e-04  0 
 -1.175716e-04  -6.074635e-05  0 
 0  0  0 

 -4.473806e-04  -1.620985e-04  0 
 -1.620985e-04  7.155140e-05  0 
 0  0  0 

 -2.038647e-04  -4.488555e-04  0 
 -4.488555e-04  -3.939632e-04  0 
 0  0  0 

 -1.444287e-04  -3.970419e-04  0 
 -3.970419e-04  -2.200647e-04  0 
 0  0  0 

 -4.042203e-04  -1.864037e-04  0 
 -1.864037e-04  -1.139542e-04  0 
 0  0  0 

 -3.393321e-04  -2.114423e-04  0 
 -2.114423e-04  1.123833e-04  0 
 0  0  0 

 -6.408555e-02  -1.249526e-01  0 
 -1.249526e-01  -1.508988e-02  0 
 0  0  0 

 -2.170501e-03  -5.276380e-02  0 
 -5.276380e-02  2.708693e-02  0 
 0  0  0 

 -5.402708e-02  -6.038967e-02  0 
 -6.038967e-02  2.860207e-02  0 
 0  0  0 

