# vtk DataFile Version 3.1
this is an vtk file created by FEMAC
ASCII
DATASET UNSTRUCTURED_GRID
POINTS 31 FLOAT
2.000000 1.000000 0.000000
3.000000 1.000000 0.000000
1.750000 1.000000 0.000000
2.000000 0.750000 0.000000
2.000000 1.250000 0.000000
2.000000 1.500000 0.000000
2.000000 1.750000 0.000000
2.250000 1.000000 0.000000
2.500000 1.000000 0.000000
2.750000 1.000000 0.000000
1.638134 0.825570 0.000000
1.835146 0.847123 0.000000
1.745000 1.195000 0.000000
1.799000 1.384000 0.000000
2.214699 0.660302 0.000000
2.638134 0.825570 0.000000
2.371728 0.825957 0.000000
2.502535 0.594871 0.000000
2.835146 0.847123 0.000000
2.167285 0.847252 0.000000
2.178356 1.674167 0.000000
2.178472 1.325972 0.000000
2.225000 1.500000 0.000000
2.341551 1.171968 0.000000
2.581177 1.216647 0.000000
2.398247 1.399662 0.000000
2.401594 1.630720 0.000000
2.661856 1.507893 0.000000
2.832172 1.245757 0.000000
2.153954 1.850472 0.000000
2.154005 1.149588 0.000000
CELLS 42 168 
3 2 11  0
3 11  3  0
3 10 11  2
3 13  4  5
3 13 12  4
3 0 12  2
3 0  4 12
3 8 16 15
3 7 16  8
3 15  9  8
3 17 16 14
3 15 16 17
3 9 18  1
3 3 19  0
3 19  7  0
3 19  3 14
3 19 16  7
3 14 16 19
3 15 18  9
3 5 20  6
3 21  5  4
3 22 20  5
3 21 22  5
3 21 25 22
3 26 20 22
3 23  7  8
3 9 24  8
3 23 25 21
3 22 25 26
3 28  9  1
3 29  6 20
3 30  4  0
3 7 30  0
3 4 30 21
3 28 24  9
3 23 30  7
3 23 21 30
3 23  8 24
3 23 24 25
3 26 25 27
3 27 25 24
3 27 24 28
CELL_TYPES 42
5 5 5 5 5 5 5 5 5 5 5 5 5 5 5 5 5 5 5 5 5 5 5 5 5 5 5 5 5 5 5 5 5 5 5 5 5 5 5 5 5 5 
POINT_DATA 31
VECTORS displacement_ITER1 FLOAT
 -7.201813e-02  -4.026065e-02  0 
 -7.223020e-02  -1.477544e-01  0 
 -7.200711e-02  -1.753548e-02  0 
 -9.891696e-02  -4.034720e-02  0 
 -4.931463e-02  -4.022578e-02  0 
 -2.666406e-02  -4.017923e-02  0 
 -2.874243e-02  -3.470772e-02  0 
 -7.206575e-02  -6.720035e-02  0 
 -7.211447e-02  -9.408409e-02  0 
 -7.216748e-02  -1.209237e-01  0 
 -4.199914e-02  -3.651956e-02  0 
 -7.295186e-02  -2.497769e-02  0 
 -5.429269e-02  -1.707633e-02  0 
 -3.715121e-02  -2.197567e-02  0 
 -1.085876e-01  -6.344595e-02  0 
 -9.086540e-02  -1.089472e-01  0 
 -9.079833e-02  -8.031855e-02  0 
 -1.156309e-01  -9.439359e-02  0 
 -8.858594e-02  -1.300968e-01  0 
 -8.848741e-02  -5.832022e-02  0 
 -3.186970e-02  -3.946216e-02  0 
 -4.583854e-02  -5.929910e-02  0 
 -3.792992e-02  -5.447368e-02  0 
 -5.970955e-02  -7.795654e-02  0 
 -6.110388e-02  -1.006280e-01  0 
 -4.950384e-02  -7.744306e-02  0 
 -3.813269e-02  -6.660121e-02  0 
 -5.455629e-02  -9.831233e-02  0 
 -6.517011e-02  -1.215103e-01  0 
 -5.181896e-02  -1.484721e-02  0 
 -5.976823e-02  -5.779959e-02  0 
VECTORS displacement_ITER2 FLOAT
 -4.060909e-02  -4.921437e-02  0 
 -4.087499e-02  -1.432419e-01  0 
 -4.058938e-02  -2.880223e-02  0 
 -6.417603e-02  -4.931641e-02  0 
 -2.021815e-02  -4.916313e-02  0 
 1.028387e-04  -4.909908e-02  0 
 8.451606e-03  -3.179292e-02  0 
 -4.067201e-02  -7.282197e-02  0 
 -4.073660e-02  -9.634828e-02  0 
 -4.080545e-02  -1.198053e-01  0 
 -1.034122e-02  -4.766893e-02  0 
 -4.035474e-02  -3.555043e-02  0 
 -2.468011e-02  -2.838148e-02  0 
 -9.297566e-03  -3.277627e-02  0 
 -7.264213e-02  -6.954666e-02  0 
 -5.713869e-02  -1.093526e-01  0 
 -5.707480e-02  -8.431450e-02  0 
 -7.879754e-02  -9.663055e-02  0 
 -5.515352e-02  -1.278242e-01  0 
 -5.504752e-02  -6.505383e-02  0 
 -1.896239e-03  -4.840379e-02  0 
 -1.731696e-02  -6.618512e-02  0 
 -9.704906e-03  -6.224748e-02  0 
 -2.990188e-02  -8.265824e-02  0 
 -3.122479e-02  -1.028236e-01  0 
 -2.066346e-02  -8.270314e-02  0 
 -9.547606e-03  -7.294776e-02  0 
 -2.558934e-02  -1.014813e-01  0 
 -3.497628e-02  -1.211818e-01  0 
 -3.690951e-03  -2.503692e-02  0 
 -2.979316e-02  -6.479658e-02  0 
VECTORS displacement_ITER3 FLOAT
 -4.536171e-02  -3.080860e-02  0 
 -4.573211e-02  -8.992795e-02  0 
 -4.532418e-02  -1.576828e-02  0 
 -6.027812e-02  -3.093549e-02  0 
 -3.033765e-02  -3.073047e-02  0 
 -1.541753e-02  -3.063975e-02  0 
 2.263938e-03  -2.656085e-03  0 
 -4.545594e-02  -4.575793e-02  0 
 -4.555117e-02  -6.057646e-02  0 
 -4.565005e-02  -7.527460e-02  0 
 -1.666960e-02  -3.046497e-02  0 
 -4.243495e-02  -2.025630e-02  0 
 -3.360584e-02  -1.544041e-02  0 
 -2.230203e-02  -1.866919e-02  0 
 -6.561749e-02  -4.371969e-02  0 
 -5.586430e-02  -6.875998e-02  0 
 -5.581219e-02  -5.302742e-02  0 
 -6.947261e-02  -6.077830e-02  0 
 -5.463819e-02  -8.030496e-02  0 
 -5.452262e-02  -4.087285e-02  0 
 -1.468942e-02  -3.021495e-02  0 
 -2.910302e-02  -4.267727e-02  0 
 -2.305938e-02  -4.025687e-02  0 
 -3.857023e-02  -5.332296e-02  0 
 -4.000718e-02  -6.659798e-02  0 
 -3.231771e-02  -5.429333e-02  0 
 -2.334219e-02  -4.720776e-02  0 
 -3.744044e-02  -6.712122e-02  0 
 -4.326060e-02  -7.791472e-02  0 
 5.728749e-03  -1.353237e-02  0 
 -3.799805e-02  -4.147403e-02  0 
VECTORS displacement_ITER4 FLOAT
 -4.604404e-02  -3.894152e-02  0 
 -4.650573e-02  -8.337242e-02  0 
 -4.599276e-02  -2.485959e-02  0 
 -5.735491e-02  -3.908633e-02  0 
 -3.197427e-02  -3.884381e-02  0 
 -1.804019e-02  -3.873516e-02  0 
 -7.640943e-03  -1.603748e-02  0 
 -4.616395e-02  -5.027669e-02  0 
 -4.628436e-02  -6.144223e-02  0 
 -4.641006e-02  -7.244305e-02  0 
 -2.175346e-02  -3.287671e-02  0 
 -4.312042e-02  -2.846736e-02  0 
 -3.502255e-02  -2.454101e-02  0 
 -2.445912e-02  -2.756090e-02  0 
 -6.138140e-02  -4.876004e-02  0 
 -5.403663e-02  -6.759995e-02  0 
 -5.398944e-02  -5.578123e-02  0 
 -6.426356e-02  -6.161327e-02  0 
 -5.313196e-02  -7.621063e-02  0 
 -5.300780e-02  -4.660209e-02  0 
 -2.042091e-02  -3.649587e-02  0 
 -3.145666e-02  -4.859446e-02  0 
 -2.652147e-02  -4.538499e-02  0 
 -4.037529e-02  -5.689063e-02  0 
 -4.236499e-02  -6.683758e-02  0 
 -3.556401e-02  -5.714252e-02  0 
 -2.819209e-02  -4.990810e-02  0 
 -4.166653e-02  -6.681672e-02  0 
 -4.594158e-02  -7.488246e-02  0 
 -4.080411e-03  -2.432912e-02  0 
 -3.949231e-02  -4.763225e-02  0 
VECTORS displacement_ITER5 FLOAT
 -3.142240e-02  -2.969847e-02  0 
 -3.204919e-02  -6.528738e-02  0 
 -3.134668e-02  -1.392355e-02  0 
 -4.063871e-02  -2.987176e-02  0 
 -1.565034e-02  -2.956898e-02  0 
 -7.560444e-05  -2.943145e-02  0 
 -1.496716e-02  -2.773269e-02  0 
 -3.158715e-02  -3.892121e-02  0 
 -3.175122e-02  -4.791130e-02  0 
 -3.192559e-02  -5.666011e-02  0 
 -1.836728e-02  -7.652569e-03  0 
 -3.100048e-02  -1.716441e-02  0 
 -1.905631e-02  -1.355479e-02  0 
 -7.241539e-03  -1.694036e-02  0 
 -4.388169e-02  -3.772262e-02  0 
 -3.796495e-02  -5.285641e-02  0 
 -3.791898e-02  -4.339049e-02  0 
 -4.616848e-02  -4.807346e-02  0 
 -3.725984e-02  -5.965704e-02  0 
 -3.711628e-02  -3.597070e-02  0 
 -1.237455e-02  -2.190294e-02  0 
 -1.559112e-02  -3.773152e-02  0 
 -1.234959e-02  -3.117786e-02  0 
 -2.552035e-02  -4.484195e-02  0 
 -2.887677e-02  -5.187054e-02  0 
 -2.210359e-02  -4.232286e-02  0 
 -1.724761e-02  -3.237841e-02  0 
 -3.064764e-02  -4.852809e-02  0 
 -3.379101e-02  -5.726573e-02  0 
 -2.407120e-02  -1.501284e-02  0 
 -2.422084e-02  -3.730792e-02  0 
VECTORS displacement_ITER6 FLOAT
 -2.306443e-02  -2.157744e-02  0 
 -2.378133e-02  -4.522822e-02  0 
 -2.297155e-02  -7.340095e-03  0 
 -2.936207e-02  -2.176738e-02  0 
 -8.822965e-03  -2.142654e-02  0 
 5.185103e-03  -2.126956e-02  0 
 -1.132313e-02  -2.271030e-02  0 
 -2.325624e-02  -2.786966e-02  0 
 -2.344492e-02  -3.389193e-02  0 
 -2.364420e-02  -3.963195e-02  0 
 -1.739317e-02  6.840069e-03  0 
 -2.359246e-02  -9.484624e-03  0 
 -1.188089e-02  -6.989687e-03  0 
 -1.245894e-03  -1.004149e-02  0 
 -3.153734e-02  -2.709604e-02  0 
 -2.757681e-02  -3.719053e-02  0 
 -2.753418e-02  -3.090751e-02  0 
 -3.303074e-02  -3.403008e-02  0 
 -2.713479e-02  -4.160222e-02  0 
 -2.698074e-02  -2.590381e-02  0 
 -7.310903e-03  -1.403376e-02  0 
 -9.334668e-03  -2.790607e-02  0 
 -6.681555e-03  -2.172106e-02  0 
 -1.835980e-02  -3.300298e-02  0 
 -2.184645e-02  -3.754260e-02  0 
 -1.592685e-02  -3.061015e-02  0 
 -1.205710e-02  -2.140021e-02  0 
 -2.474772e-02  -3.439681e-02  0 
 -2.679324e-02  -4.026139e-02  0 
 -1.859138e-02  -1.111022e-02  0 
 -1.689222e-02  -2.754175e-02  0 
VECTORS displacement_ITER7 FLOAT
 -1.665918e-02  -1.577203e-02  0 
 -1.742892e-02  -2.622490e-02  0 
 -1.654978e-02  -5.184277e-03  0 
 -1.969704e-02  -1.597354e-02  0 
 -6.057475e-03  -1.560459e-02  0 
 4.289427e-03  -1.543179e-02  0 
 3.639339e-03  -7.264881e-03  0 
 -1.687042e-02  -1.879469e-02  0 
 -1.707450e-02  -2.152396e-02  0 
 -1.728626e-02  -2.394940e-02  0 
 -1.411347e-02  9.504369e-03  0 
 -1.691225e-02  -6.069863e-03  0 
 -8.305661e-03  -4.892950e-03  0 
 -4.383965e-04  -7.153196e-03  0 
 -2.068887e-02  -1.849059e-02  0 
 -1.890310e-02  -2.299889e-02  0 
 -1.886393e-02  -2.023790e-02  0 
 -2.130992e-02  -2.163233e-02  0 
 -1.875013e-02  -2.478977e-02  0 
 -1.858811e-02  -1.792118e-02  0 
 -9.678670e-04  -1.250680e-02  0 
 -7.133243e-03  -2.040685e-02  0 
 -4.023912e-03  -1.722797e-02  0 
 -1.406791e-02  -2.313462e-02  0 
 -1.681347e-02  -2.576274e-02  0 
 -1.210245e-02  -2.290951e-02  0 
 -7.650900e-03  -1.662438e-02  0 
 -1.961535e-02  -2.539854e-02  0 
 -2.087548e-02  -2.609408e-02  0 
 1.003398e-02  -1.319160e-02  0 
 -1.259597e-02  -1.980720e-02  0 
VECTORS displacement_ITER8 FLOAT
 -1.937111e-02  -1.109960e-02  0 
 -2.016346e-02  -1.681543e-02  0 
 -1.925152e-02  -3.312582e-03  0 
 -2.123802e-02  -1.130475e-02  0 
 -1.156109e-02  -1.092627e-02  0 
 -4.017549e-03  -1.074814e-02  0 
 -2.338332e-03  -2.720143e-03  0 
 -1.959175e-02  -1.294430e-02  0 
 -1.980231e-02  -1.448994e-02  0 
 -2.001876e-02  -1.572650e-02  0 
 -1.707416e-02  8.730418e-03  0 
 -1.923732e-02  -3.522968e-03  0 
 -1.319124e-02  -3.068889e-03  0 
 -7.443602e-03  -4.724351e-03  0 
 -2.180584e-02  -1.281106e-02  0 
 -2.080444e-02  -1.531142e-02  0 
 -2.076441e-02  -1.381543e-02  0 
 -2.211633e-02  -1.459141e-02  0 
 -2.075681e-02  -1.616323e-02  0 
 -2.058687e-02  -1.246522e-02  0 
 -7.461722e-03  -9.240501e-03  0 
 -1.297840e-02  -1.474923e-02  0 
 -1.054318e-02  -1.258583e-02  0 
 -1.826589e-02  -1.667630e-02  0 
 -2.076626e-02  -1.858173e-02  0 
 -1.736029e-02  -1.706548e-02  0 
 -1.345464e-02  -1.217487e-02  0 
 -2.404398e-02  -1.946658e-02  0 
 -2.426818e-02  -1.822100e-02  0 
 5.453244e-03  -1.092910e-02  0 
 -1.678569e-02  -1.421894e-02  0 
VECTORS displacement_ITER9 FLOAT
 -1.060007e-02  -4.180005e-03  0 
 -1.142092e-02  -1.512983e-02  0 
 -1.046585e-02  1.658084e-03  0 
 -1.379122e-02  -4.382259e-03  0 
 -4.720288e-03  -4.006643e-03  0 
 8.763044e-04  -3.829254e-03  0 
 -4.859943e-03  -6.365607e-03  0 
 -1.083186e-02  -7.333442e-03  0 
 -1.104924e-02  -1.019004e-02  0 
 -1.127234e-02  -1.273383e-02  0 
 -1.088213e-02  1.193613e-02  0 
 -1.157941e-02  1.827582e-03  0 
 -5.923308e-03  1.873462e-03  0 
 -1.647149e-03  6.334894e-04  0 
 -1.483179e-02  -7.020311e-03  0 
 -1.296677e-02  -1.173969e-02  0 
 -1.292001e-02  -8.847920e-03  0 
 -1.549047e-02  -1.031531e-02  0 
 -1.280962e-02  -1.361805e-02  0 
 -1.262654e-02  -6.425668e-03  0 
 -3.711650e-03  -3.730196e-03  0 
 -6.017494e-03  -8.049088e-03  0 
 -4.538102e-03  -6.221319e-03  0 
 -1.004599e-02  -1.075872e-02  0 
 -1.228677e-02  -1.363396e-02  0 
 -9.901726e-03  -1.105701e-02  0 
 -7.139872e-03  -6.777084e-03  0 
 -1.567314e-02  -1.448546e-02  0 
 -1.533082e-02  -1.446082e-02  0 
 -4.291111e-03  -6.658631e-03  0 
 -8.759247e-03  -7.617813e-03  0 
VECTORS displacement_ITER10 FLOAT
 -1.107828e-02  -2.832753e-03  0 
 -1.191510e-02  -1.411994e-02  0 
 -1.093080e-02  8.361799e-04  0 
 -1.436726e-02  -3.029108e-03  0 
 -7.347239e-03  -2.662547e-03  0 
 -3.911595e-03  -2.486472e-03  0 
 -7.820776e-03  -7.435884e-03  0 
 -1.131864e-02  -6.067210e-03  0 
 -1.153925e-02  -9.010114e-03  0 
 -1.176519e-02  -1.163965e-02  0 
 -1.356998e-02  9.054709e-03  0 
 -1.267116e-02  1.439266e-03  0 
 -8.076617e-03  1.018310e-03  0 
 -5.433532e-03  2.410150e-04  0 
 -1.543983e-02  -5.744986e-03  0 
 -1.351812e-02  -1.060999e-02  0 
 -1.346874e-02  -7.626107e-03  0 
 -1.612611e-02  -9.141544e-03  0 
 -1.335430e-02  -1.255343e-02  0 
 -1.316480e-02  -5.135254e-03  0 
 -6.554779e-03  -4.640686e-03  0 
 -8.596769e-03  -6.465481e-03  0 
 -7.468100e-03  -5.862509e-03  0 
 -1.123856e-02  -9.016243e-03  0 
 -1.299646e-02  -1.199336e-02  0 
 -1.151785e-02  -9.828912e-03  0 
 -9.542612e-03  -6.611356e-03  0 
 -1.652074e-02  -1.280562e-02  0 
 -1.562066e-02  -1.282932e-02  0 
 -8.277487e-03  -8.502921e-03  0 
 -1.017199e-02  -5.982219e-03  0 
VECTORS displacement_ITER11 FLOAT
 -6.958230e-03  1.712559e-03  0 
 -7.801484e-03  -6.364133e-03  0 
 -6.800953e-03  2.982981e-03  0 
 -9.452565e-03  1.519443e-03  0 
 -5.609646e-03  1.880451e-03  0 
 -4.565038e-03  2.057051e-03  0 
 -3.477408e-03  -1.675791e-04  0 
 -7.204689e-03  -7.147335e-04  0 
 -7.426286e-03  -2.854993e-03  0 
 -7.652254e-03  -4.683927e-03  0 
 -9.718022e-03  7.884251e-03  0 
 -8.332676e-03  3.979323e-03  0 
 -5.814463e-03  3.125167e-03  0 
 -4.978226e-03  2.861893e-03  0 
 -1.023777e-02  -5.083560e-04  0 
 -8.846643e-03  -4.013197e-03  0 
 -8.797278e-03  -1.883772e-03  0 
 -1.071823e-02  -2.980613e-03  0 
 -8.751704e-03  -5.324945e-03  0 
 -8.559604e-03  -5.187916e-05  0 
 -4.722326e-03  -1.380289e-03  0 
 -6.892298e-03  -1.046757e-03  0 
 -6.221057e-03  -1.527406e-03  0 
 -8.051027e-03  -2.900080e-03  0 
 -9.418541e-03  -5.193240e-03  0 
 -8.916690e-03  -4.047116e-03  0 
 -7.799825e-03  -1.924108e-03  0 
 -1.324228e-02  -5.696353e-03  0 
 -1.172243e-02  -5.342653e-03  0 
 -2.372927e-03  -5.079762e-03  0 
 -7.148692e-03  -6.147410e-04  0 
VECTORS displacement_ITER12 FLOAT
 -3.665736e-03  3.427801e-03  0 
 -4.506820e-03  -5.627373e-03  0 
 -3.499673e-03  3.445024e-03  0 
 -6.409195e-03  3.237705e-03  0 
 -3.555173e-03  3.592441e-03  0 
 -3.757011e-03  3.769126e-03  0 
 1.066496e-03  3.021819e-03  0 
 -3.917443e-03  7.635288e-04  0 
 -4.138144e-03  -1.619255e-03  0 
 -4.361143e-03  -3.695680e-03  0 
 -7.012789e-03  5.880400e-03  0 
 -5.296996e-03  4.490140e-03  0 
 -3.487682e-03  3.569022e-03  0 
 -3.592406e-03  3.571942e-03  0 
 -7.281832e-03  1.001974e-03  0 
 -5.729821e-03  -2.912781e-03  0 
 -5.679687e-03  -5.233063e-04  0 
 -7.830516e-03  -1.747413e-03  0 
 -5.612543e-03  -4.420466e-03  0 
 -5.419616e-03  1.503148e-03  0 
 -1.708212e-03  -1.317007e-03  0 
 -4.629611e-03  7.442441e-04  0 
 -3.889877e-03  -7.567239e-04  0 
 -4.988009e-03  -1.129052e-03  0 
 -5.796143e-03  -3.791202e-03  0 
 -5.639809e-03  -2.866561e-03  0 
 -4.424134e-03  -2.056051e-03  0 
 -8.595999e-03  -5.057283e-03  0 
 -7.403604e-03  -4.471567e-03  0 
 2.486117e-03  -4.371191e-03  0 
 -4.311873e-03  1.228849e-03  0 
VECTORS displacement_ITER13 FLOAT
 -9.650321e-04  1.697154e-03  0 
 -1.816998e-03  -1.008521e-02  0 
 -7.881339e-04  1.708411e-03  0 
 -4.403063e-03  1.510045e-03  0 
 -8.399213e-04  1.856572e-03  0 
 -1.042133e-03  2.034177e-03  0 
 -1.026577e-04  -1.361580e-03  0 
 -1.225415e-03  -1.645359e-03  0 
 -1.448081e-03  -4.710928e-03  0 
 -1.672349e-03  -7.470539e-03  0 
 -4.546050e-03  1.469874e-03  0 
 -3.035754e-03  2.205471e-03  0 
 -7.761222e-04  1.840333e-03  0 
 -8.765001e-04  1.837094e-03  0 
 -5.521860e-03  -1.314219e-03  0 
 -3.517783e-03  -6.383476e-03  0 
 -3.465429e-03  -3.265864e-03  0 
 -6.255264e-03  -4.848123e-03  0 
 -3.340966e-03  -8.427492e-03  0 
 -3.144221e-03  -6.844754e-04  0 
 -4.928624e-04  -1.838542e-03  0 
 -1.619642e-03  -9.197192e-04  0 
 -1.364512e-03  -1.806867e-03  0 
 -1.902077e-03  -3.226757e-03  0 
 -2.651380e-03  -6.128315e-03  0 
 -2.586033e-03  -4.226421e-03  0 
 -2.096240e-03  -3.126211e-03  0 
 -5.142156e-03  -6.391117e-03  0 
 -4.085692e-03  -7.529015e-03  0 
 -4.587952e-03  -2.996841e-03  0 
 -1.375809e-03  -6.145514e-04  0 
VECTORS displacement_ITER14 FLOAT
 -4.459681e-04  3.706777e-03  0 
 -1.296930e-03  -8.555379e-03  0 
 -2.656043e-04  3.553683e-03  0 
 -4.004777e-03  3.522339e-03  0 
 -4.768445e-04  3.862476e-03  0 
 -8.380344e-04  4.039623e-03  0 
 6.478948e-05  1.121248e-03  0 
 -7.081477e-04  2.494795e-04  0 
 -9.302764e-04  -2.935081e-03  0 
 -1.153545e-03  -5.816493e-03  0 
 -3.496626e-03  1.686699e-03  0 
 -2.483142e-03  3.849963e-03  0 
 -3.797769e-04  3.685013e-03  0 
 -5.988290e-04  3.714271e-03  0 
 -5.166885e-03  5.964041e-04  0 
 -3.084476e-03  -4.674498e-03  0 
 -3.031293e-03  -1.428730e-03  0 
 -5.934667e-03  -3.074159e-03  0 
 -2.896998e-03  -6.814891e-03  0 
 -2.698897e-03  1.248099e-03  0 
 -2.721652e-04  3.394908e-04  0 
 -1.147019e-03  1.180502e-03  0 
 -9.712855e-04  3.166431e-04  0 
 -1.323153e-03  -1.206011e-03  0 
 -1.956687e-03  -4.206802e-03  0 
 -1.929645e-03  -2.143822e-03  0 
 -1.441776e-03  -1.292358e-03  0 
 -3.981280e-03  -4.649105e-03  0 
 -3.127919e-03  -5.953331e-03  0 
 -5.055254e-03  -1.845947e-04  0 
 -8.593979e-04  1.434045e-03  0 
VECTORS displacement_ITER15 FLOAT
 8.903678e-04  3.074137e-03  0 
 4.433875e-05  -1.025041e-02  0 
 1.074673e-03  2.715214e-03  0 
 -2.931634e-03  2.894269e-03  0 
 6.650652e-04  3.223445e-03  0 
 1.073625e-04  3.399517e-03  0 
 1.732487e-03  2.199019e-03  0 
 6.268697e-04  -6.386191e-04  0 
 4.063428e-04  -4.086168e-03  0 
 1.855066e-04  -7.236578e-03  0 
 -1.252539e-03  -1.211454e-03  0 
 -1.067821e-03  2.767308e-03  0 
 8.027366e-04  2.845457e-03  0 
 4.371145e-04  2.914952e-03  0 
 -4.189115e-03  -2.557986e-04  0 
 -1.934090e-03  -5.972912e-03  0 
 -1.879293e-03  -2.444152e-03  0 
 -5.030824e-03  -4.228992e-03  0 
 -1.723550e-03  -8.326967e-03  0 
 -1.523062e-03  4.448491e-04  0 
 1.034609e-03  -2.136051e-04  0 
 1.978483e-04  6.327400e-04  0 
 3.875528e-04  -2.873863e-04  0 
 1.291265e-04  -1.956070e-03  0 
 -2.792099e-04  -5.274512e-03  0 
 -2.015650e-04  -2.924076e-03  0 
 6.113614e-04  -2.641815e-03  0 
 -1.203154e-03  -6.404873e-03  0 
 -9.297361e-04  -7.787441e-03  0 
 -2.967097e-03  6.440746e-05  0 
 4.969346e-04  8.113299e-04  0 
VECTORS displacement_ITER16 FLOAT
 1.304243e-03  2.241984e-03  0 
 4.614357e-04  -1.080609e-02  0 
 1.490303e-03  1.911449e-03  0 
 -2.447761e-03  2.066279e-03  0 
 1.114364e-03  2.385799e-03  0 
 5.909801e-04  2.560354e-03  0 
 7.807789e-04  1.034615e-03  0 
 1.039969e-03  -1.395023e-03  0 
 8.203379e-04  -4.771459e-03  0 
 6.011078e-04  -7.854394e-03  0 
 -1.517811e-03  -5.051674e-04  0 
 -7.567050e-04  2.064625e-03  0 
 1.242242e-03  2.042942e-03  0 
 9.043729e-04  2.102818e-03  0 
 -3.679866e-03  -1.022534e-03  0 
 -1.472272e-03  -6.619918e-03  0 
 -1.416852e-03  -3.165456e-03  0 
 -4.505467e-03  -4.913755e-03  0 
 -1.267901e-03  -8.922232e-03  0 
 -1.065833e-03  -3.362115e-04  0 
 9.160965e-04  -6.209817e-04  0 
 6.961644e-04  -6.048352e-05  0 
 7.592980e-04  -7.815614e-04  0 
 6.097218e-04  -2.632071e-03  0 
 2.556311e-04  -5.928940e-03  0 
 3.249427e-04  -3.514366e-03  0 
 1.170835e-03  -3.504715e-03  0 
 -1.301238e-04  -7.592495e-03  0 
 -6.496642e-05  -8.753224e-03  0 
 -4.287053e-03  -2.087618e-04  0 
 9.597993e-04  6.494435e-05  0 
VECTORS displacement_ITER17 FLOAT
 1.002982e-03  1.490873e-03  0 
 1.647583e-04  -8.385376e-03  0 
 1.188532e-03  7.811730e-04  0 
 -1.955070e-03  1.316690e-03  0 
 4.357644e-04  1.631688e-03  0 
 -4.626902e-04  1.805969e-03  0 
 1.020673e-03  2.260714e-03  0 
 7.390701e-04  -1.350392e-03  0 
 5.206720e-04  -3.932727e-03  0 
 3.032467e-04  -6.223628e-03  0 
 -2.255026e-03  6.182728e-04  0 
 -7.685146e-04  1.328256e-03  0 
 6.451898e-04  9.042756e-04  0 
 2.438124e-05  1.045026e-03  0 
 -2.901702e-03  -1.089619e-03  0 
 -1.218439e-03  -5.342108e-03  0 
 -1.164801e-03  -2.733290e-03  0 
 -3.519661e-03  -4.064996e-03  0 
 -1.081723e-03  -7.021318e-03  0 
 -8.815391e-04  -5.544597e-04  0 
 1.826539e-04  -9.618257e-04  0 
 -7.937871e-05  -2.855876e-04  0 
 -1.395292e-04  -1.021391e-03  0 
 4.062603e-05  -2.356505e-03  0 
 -2.978330e-04  -5.048974e-03  0 
 -4.192857e-04  -3.267095e-03  0 
 3.884986e-04  -3.563560e-03  0 
 -6.375785e-04  -7.110565e-03  0 
 -4.331158e-04  -7.406308e-03  0 
 -2.010333e-03  -4.439764e-04  0 
 4.233474e-04  -2.137271e-04  0 
VECTORS displacement_ITER18 FLOAT
 8.536029e-04  7.916317e-04  0 
 1.486806e-05  -8.033253e-03  0 
 1.038160e-03  3.286941e-04  0 
 -1.841766e-03  6.181302e-04  0 
 5.338013e-04  9.296390e-04  0 
 -1.141393e-04  1.102330e-03  0 
 -5.787827e-04  1.000527e-04  0 
 5.899259e-04  -1.786399e-03  0 
 3.716493e-04  -4.106163e-03  0 
 1.540590e-04  -6.134520e-03  0 
 -2.249612e-03  1.810347e-03  0 
 -7.092119e-04  1.033991e-03  0 
 6.874156e-04  4.555714e-04  0 
 2.560911e-04  5.422205e-04  0 
 -2.694193e-03  -1.562736e-03  0 
 -1.184375e-03  -5.370420e-03  0 
 -1.131254e-03  -3.041278e-03  0 
 -3.243624e-03  -4.235253e-03  0 
 -1.070078e-03  -6.842762e-03  0 
 -8.702645e-04  -1.077378e-03  0 
 -2.897203e-04  -9.400225e-04  0 
 1.241184e-05  -7.808749e-04  0 
 -1.681739e-04  -1.157700e-03  0 
 -1.782581e-05  -2.704936e-03  0 
 -4.611377e-04  -5.089816e-03  0 
 -5.258110e-04  -3.329293e-03  0 
 1.073550e-04  -3.388858e-03  0 
 -8.527126e-04  -6.914854e-03  0 
 -6.473859e-04  -7.269855e-03  0 
 -4.261631e-03  -4.111663e-04  0 
 3.926415e-04  -7.698059e-04  0 
VECTORS displacement_ITER19 FLOAT
 4.860730e-04  3.709420e-04  0 
 -3.506644e-04  -6.803145e-03  0 
 6.693773e-04  6.216666e-05  0 
 -1.794310e-03  1.972907e-04  0 
 3.209431e-04  5.060272e-04  0 
 -1.665785e-04  6.768822e-04  0 
 1.286669e-04  9.904139e-05  0 
 2.232248e-04  -1.792680e-03  0 
 5.730937e-06  -3.699138e-03  0 
 -2.110761e-04  -5.315730e-03  0 
 -1.103836e-03  1.448726e-03  0 
 -4.882846e-04  8.264724e-04  0 
 4.389829e-04  1.912780e-04  0 
 1.282183e-04  2.445315e-04  0 
 -2.498711e-03  -1.627608e-03  0 
 -1.262534e-03  -4.735099e-03  0 
 -1.210143e-03  -2.845774e-03  0 
 -2.940608e-03  -3.823137e-03  0 
 -1.183483e-03  -5.883798e-03  0 
 -9.842922e-04  -1.220445e-03  0 
 -3.335822e-05  -1.145933e-03  0 
 -1.736956e-04  -9.625093e-04  0 
 -2.206724e-04  -1.341015e-03  0 
 -3.104068e-04  -2.608700e-03  0 
 -7.332368e-04  -4.658859e-03  0 
 -6.534788e-04  -3.206320e-03  0 
 8.835040e-05  -3.296120e-03  0 
 -8.975820e-04  -6.465736e-03  0 
 -8.869160e-04  -6.590948e-03  0 
 -2.452000e-03  -4.898918e-04  0 
 9.831362e-05  -9.639382e-04  0 
VECTORS displacement_ITER20 FLOAT
 -1.432074e-04  1.572688e-04  0 
 -9.779800e-04  -6.242033e-03  0 
 3.934972e-05  3.604270e-05  0 
 -2.228941e-03  -1.659815e-05  0 
 -1.199537e-04  2.900869e-04  0 
 -4.157955e-04  4.595701e-04  0 
 -8.307806e-04  -5.580986e-04  0 
 -4.055731e-04  -1.811521e-03  0 
 -6.219842e-04  -3.524424e-03  0 
 -8.379479e-04  -4.948739e-03  0 
 -8.352894e-04  1.462102e-03  0 
 -7.715043e-04  7.958627e-04  0 
 -4.451920e-05  1.683470e-04  0 
 -2.105870e-04  1.806767e-04  0 
 -2.863943e-03  -1.673954e-03  0 
 -1.755476e-03  -4.453389e-03  0 
 -1.703979e-03  -2.769576e-03  0 
 -3.255992e-03  -3.644876e-03  0 
 -1.692049e-03  -5.451032e-03  0 
 -1.494674e-03  -1.303568e-03  0 
 -5.986848e-04  -7.992822e-04  0 
 -5.713124e-04  -9.889332e-04  0 
 -6.498664e-04  -1.137792e-03  0 
 -8.175130e-04  -2.516266e-03  0 
 -1.279005e-03  -4.314144e-03  0 
 -1.121702e-03  -2.885638e-03  0 
 -4.689602e-04  -2.790200e-03  0 
 -1.417488e-03  -5.798467e-03  0 
 -1.472959e-03  -6.068319e-03  0 
 -3.525128e-03  5.124239e-05  0 
 -4.140641e-04  -1.043383e-03  0 
VECTORS displacement_ITER21 FLOAT
 -6.663161e-04  3.397707e-04  0 
 -1.496320e-03  -5.468512e-03  0 
 -4.843238e-04  1.817403e-04  0 
 -2.600331e-03  1.675352e-04  0 
 -6.778455e-04  4.691282e-04  0 
 -1.004059e-03  6.362570e-04  0 
 -5.684015e-04  2.866336e-04  0 
 -9.271577e-04  -1.476623e-03  0 
 -1.141517e-03  -3.041078e-03  0 
 -1.355719e-03  -4.320594e-03  0 
 -3.581797e-04  9.447979e-04  0 
 -9.462047e-04  9.451802e-04  0 
 -5.963327e-04  3.130298e-04  0 
 -7.859060e-04  3.325398e-04  0 
 -3.182287e-03  -1.359916e-03  0 
 -2.172519e-03  -3.888712e-03  0 
 -2.121405e-03  -2.361127e-03  0 
 -3.537415e-03  -3.158801e-03  0 
 -2.120932e-03  -4.773832e-03  0 
 -1.924722e-03  -1.018100e-03  0 
 -7.958672e-04  -6.644838e-04  0 
 -1.080729e-03  -6.822440e-04  0 
 -1.077192e-03  -9.184603e-04  0 
 -1.306024e-03  -2.090790e-03  0 
 -1.716016e-03  -3.744584e-03  0 
 -1.507402e-03  -2.463055e-03  0 
 -7.990310e-04  -2.437224e-03  0 
 -1.720846e-03  -5.090371e-03  0 
 -1.909841e-03  -5.334633e-03  0 
 -1.956603e-03  -2.487601e-05  0 
 -9.309743e-04  -7.438988e-04  0 
VECTORS displacement_ITER22 FLOAT
 -8.687363e-04  4.652018e-04  0 
 -1.691251e-03  -5.627842e-03  0 
 -6.875481e-04  3.658883e-04  0 
 -2.867416e-03  2.981476e-04  0 
 -8.176909e-04  5.881847e-04  0 
 -1.075347e-03  7.502648e-04  0 
 -1.405706e-03  -5.660664e-04  0 
 -1.126535e-03  -1.413641e-03  0 
 -1.337602e-03  -3.048471e-03  0 
 -1.549417e-03  -4.404335e-03  0 
 -1.709763e-04  9.304639e-04  0 
 -1.044092e-03  1.138560e-03  0 
 -7.526260e-04  4.976700e-04  0 
 -8.910434e-04  5.024098e-04  0 
 -3.474886e-03  -1.286258e-03  0 
 -2.419588e-03  -3.936618e-03  0 
 -2.368170e-03  -2.330476e-03  0 
 -3.851812e-03  -3.166019e-03  0 
 -2.360786e-03  -4.884319e-03  0 
 -2.165432e-03  -9.321819e-04  0 
 -9.975554e-04  -5.809161e-04  0 
 -1.137286e-03  -5.335477e-04  0 
 -1.112720e-03  -7.426856e-04  0 
 -1.387010e-03  -1.958599e-03  0 
 -1.779603e-03  -3.581389e-03  0 
 -1.497008e-03  -2.208135e-03  0 
 -8.664168e-04  -2.090431e-03  0 
 -1.725638e-03  -4.511063e-03  0 
 -2.054957e-03  -5.113629e-03  0 
 -2.433779e-03  -5.789478e-04  0 
 -1.052789e-03  -6.105412e-04  0 
VECTORS displacement_ITER23 FLOAT
 -1.173375e-03  -4.634170e-04  0 
 -1.989597e-03  -5.146572e-03  0 
 -9.926945e-04  -6.643340e-04  0 
 -2.815471e-03  -6.255135e-04  0 
 -1.220041e-03  -3.456562e-04  0 
 -1.572072e-03  -1.865137e-04  0 
 -8.664058e-04  -1.279889e-04  0 
 -1.428715e-03  -1.982854e-03  0 
 -1.636739e-03  -3.264945e-03  0 
 -1.846395e-03  -4.272915e-03  0 
 -8.244572e-04  3.899477e-04  0 
 -1.303086e-03  1.586892e-04  0 
 -1.135657e-03  -5.350695e-04  0 
 -1.345085e-03  -5.104205e-04  0 
 -3.296025e-03  -1.904162e-03  0 
 -2.474000e-03  -3.959204e-03  0 
 -2.423455e-03  -2.725977e-03  0 
 -3.583013e-03  -3.376954e-03  0 
 -2.444206e-03  -4.634778e-03  0 
 -2.250919e-03  -1.618333e-03  0 
 -1.279207e-03  -1.156457e-03  0 
 -1.546164e-03  -1.198088e-03  0 
 -1.578128e-03  -1.363773e-03  0 
 -1.725703e-03  -2.364204e-03  0 
 -2.143638e-03  -3.581111e-03  0 
 -1.913213e-03  -2.479573e-03  0 
 -1.477240e-03  -2.271904e-03  0 
 -2.344660e-03  -3.986129e-03  0 
 -2.566161e-03  -4.615129e-03  0 
 -1.271255e-03  -8.485897e-04  0 
 -1.399546e-03  -1.305921e-03  0 
VECTORS displacement_ITER24 FLOAT
 -1.228103e-03  -9.998163e-04  0 
 -2.038410e-03  -5.129065e-03  0 
 -1.047430e-03  -8.889505e-04  0 
 -2.728040e-03  -1.157732e-03  0 
 -9.589384e-04  -8.865615e-04  0 
 -9.927583e-04  -7.302917e-04  0 
 -7.602884e-04  -1.001881e-03  0 
 -1.481547e-03  -2.374211e-03  0 
 -1.686876e-03  -3.516950e-03  0 
 -1.894366e-03  -4.390218e-03  0 
 -1.212356e-03  2.214183e-04  0 
 -1.463524e-03  -2.784756e-04  0 
 -9.458024e-04  -7.534085e-04  0 
 -9.142994e-04  -7.980764e-04  0 
 -3.158195e-03  -2.314241e-03  0 
 -2.428418e-03  -4.135085e-03  0 
 -2.378329e-03  -3.047701e-03  0 
 -3.410814e-03  -3.625520e-03  0 
 -2.409618e-03  -4.706746e-03  0 
 -2.217739e-03  -2.056076e-03  0 
 -9.544547e-04  -1.309428e-03  0 
 -1.229372e-03  -1.633232e-03  0 
 -1.210806e-03  -1.623649e-03  0 
 -1.590166e-03  -2.692773e-03  0 
 -2.049092e-03  -3.690409e-03  0 
 -1.654336e-03  -2.610429e-03  0 
 -1.285933e-03  -2.184206e-03  0 
 -2.239559e-03  -3.617954e-03  0 
 -2.601190e-03  -4.515581e-03  0 
 -1.709903e-03  -9.100640e-04  0 
 -1.274799e-03  -1.762807e-03  0 
VECTORS displacement_ITER25 FLOAT
 -1.682517e-03  -1.007773e-03  0 
 -2.482052e-03  -4.251260e-03  0 
 -1.501837e-03  -6.831714e-04  0 
 -2.952673e-03  -1.160267e-03  0 
 -1.194252e-03  -9.006487e-04  0 
 -1.003690e-03  -7.488339e-04  0 
 -4.439475e-04  -9.392928e-04  0 
 -1.932692e-03  -2.149495e-03  0 
 -2.133789e-03  -3.068239e-03  0 
 -2.337403e-03  -3.725751e-03  0 
 -1.120159e-03  -9.540549e-04  0 
 -1.812250e-03  -4.290603e-04  0 
 -1.231742e-03  -5.429041e-04  0 
 -1.030984e-03  -6.358562e-04  0 
 -3.302303e-03  -2.120017e-03  0 
 -2.721789e-03  -3.564236e-03  0 
 -2.671949e-03  -2.711271e-03  0 
 -3.499870e-03  -3.172187e-03  0 
 -2.721183e-03  -3.969948e-03  0 
 -2.530463e-03  -1.905863e-03  0 
 -7.902266e-04  -1.334766e-03  0 
 -1.396034e-03  -1.515175e-03  0 
 -1.215758e-03  -1.536764e-03  0 
 -1.890704e-03  -2.395829e-03  0 
 -2.323188e-03  -3.174977e-03  0 
 -1.728699e-03  -2.265241e-03  0 
 -1.290145e-03  -1.820331e-03  0 
 -2.290528e-03  -2.838907e-03  0 
 -2.930329e-03  -3.811528e-03  0 
 -7.017210e-04  -1.400368e-03  0 
 -1.599893e-03  -1.640930e-03  0 
VECTORS displacement_ITER26 FLOAT
 -1.378322e-03  -8.129119e-04  0 
 -2.164326e-03  -3.697394e-03  0 
 -1.198170e-03  -3.493282e-04  0 
 -2.549351e-03  -9.597103e-04  0 
 -7.468821e-04  -7.117740e-04  0 
 -4.081454e-04  -5.646567e-04  0 
 -8.948160e-04  -1.499995e-03  0 
 -1.624713e-03  -1.852848e-03  0 
 -1.820913e-03  -2.678800e-03  0 
 -2.019784e-03  -3.252563e-03  0 
 -1.089391e-03  -7.141920e-04  0 
 -1.612076e-03  -2.999856e-04  0 
 -8.182860e-04  -2.065832e-04  0 
 -5.058690e-04  -3.316688e-04  0 
 -2.865225e-03  -1.834962e-03  0 
 -2.346913e-03  -3.125062e-03  0 
 -2.297453e-03  -2.366423e-03  0 
 -3.041873e-03  -2.778846e-03  0 
 -2.352828e-03  -3.469354e-03  0 
 -2.164188e-03  -1.640154e-03  0 
 -6.240483e-04  -9.654624e-04  0 
 -9.098095e-04  -1.240341e-03  0 
 -7.629923e-04  -1.141411e-03  0 
 -1.475094e-03  -2.035863e-03  0 
 -1.923751e-03  -2.666019e-03  0 
 -1.266680e-03  -1.757421e-03  0 
 -9.874224e-04  -1.215255e-03  0 
 -1.858168e-03  -2.043074e-03  0 
 -2.572508e-03  -3.219685e-03  0 
 -1.163700e-03  -1.597136e-03  0 
 -1.201933e-03  -1.379273e-03  0 
VECTORS displacement_ITER27 FLOAT
 -1.343525e-03  -8.246133e-04  0 
 -2.118812e-03  -2.759506e-03  0 
 -1.163972e-03  -5.873948e-04  0 
 -2.269485e-03  -9.679653e-04  0 
 -9.360913e-04  -7.271856e-04  0 
 -8.179960e-04  -5.821614e-04  0 
 -2.397665e-04  3.589989e-04  0 
 -1.587039e-03  -1.618184e-03  0 
 -1.779306e-03  -2.204262e-03  0 
 -1.974204e-03  -2.545367e-03  0 
 -1.079706e-03  -1.001562e-03  0 