# vtk DataFile Version 3.1
this is an vtk file created by FEMAC
ASCII
DATASET UNSTRUCTURED_GRID
POINTS 32 FLOAT
2.000000 6.000000 0.000000
3.000000 6.000000 0.000000
1.500000 6.000000 0.000000
1.750000 6.000000 0.000000
2.000000 5.250000 0.000000
2.000000 5.500000 0.000000
2.000000 5.750000 0.000000
2.250000 6.000000 0.000000
2.500000 6.000000 0.000000
2.750000 6.000000 0.000000
3.000000 5.750000 0.000000
1.500000 5.225000 0.000000
1.828194 5.341416 0.000000
1.808128 5.581646 0.000000
1.399662 5.398247 0.000000
1.630720 5.401594 0.000000
1.507893 5.661856 0.000000
1.761003 5.832250 0.000000
2.779567 5.382160 0.000000
2.630775 5.827766 0.000000
2.755439 5.624066 0.000000
2.824828 5.832129 0.000000
2.612481 5.213004 0.000000
2.512458 5.452138 0.000000
2.226064 5.411783 0.000000
2.371000 5.200321 0.000000
2.336993 5.654341 0.000000
2.536356 5.684027 0.000000
2.137611 5.638225 0.000000
2.396521 5.840189 0.000000
2.186854 5.813792 0.000000
2.169413 5.172421 0.000000
CELLS 43 172 
3 12  4  5
3 6 13  5
3 14 11 15
3 3 17  0
3 17  6  0
3 17 13  6
3 12  5 13
3 12 13 15
3 14 15 16
3 16 15 13
3 2 17  3
3 16 17  2
3 16 13 17
3 19  9  8
3 9 21  1
3 21 10  1
3 19 21  9
3 10 21 20
3 19 20 21
3 23 18 20
3 4 24  5
3 26 24 23
3 22 18 23
3 23 25 22
3 23 24 25
3 27 20 19
3 27 26 23
3 20 27 23
3 8 29 19
3 7 29  8
3 29 27 19
3 26 27 29
3 28  5 24
3 5 28  6
3 26 28 24
3 6 30  0
3 30  7  0
3 30  6 28
3 28 26 30
3 30 29  7
3 26 29 30
3 24 31 25
3 31 24  4
CELL_TYPES 43
5 5 5 5 5 5 5 5 5 5 5 5 5 5 5 5 5 5 5 5 5 5 5 5 5 5 5 5 5 5 5 5 5 5 5 5 5 5 5 5 5 5 5 
POINT_DATA 32
VECTORS displacement_ITER1 FLOAT
 8.902923e-02  -9.422145e-02  0 
 1.825805e-01  -2.201825e-01  0 
 8.895794e-02  -6.151409e-02  0 
 8.899454e-02  -7.786114e-02  0 
 4.012076e-02  -9.400908e-02  0 
 5.634611e-02  -9.412111e-02  0 
 7.266191e-02  -9.418418e-02  0 
 1.089744e-01  -1.303518e-01  0 
 1.288979e-01  -1.558306e-01  0 
 1.545188e-01  -1.834364e-01  0 
 1.419023e-01  -1.959605e-01  0 
 3.821370e-02  -6.142986e-02  0 
 4.599674e-02  -8.289522e-02  0 
 6.164551e-02  -8.162949e-02  0 
 4.961510e-02  -5.486686e-02  0 
 4.986643e-02  -7.003093e-02  0 
 6.688213e-02  -6.200637e-02  0 
 7.802481e-02  -7.855496e-02  0 
 1.073676e-01  -1.144707e-01  0 
 1.215364e-01  -1.526011e-01  0 
 1.095580e-01  -1.449120e-01  0 
 1.398990e-01  -1.750821e-01  0 
 1.032597e-01  -9.696892e-02  0 
 8.564622e-02  -1.159594e-01  0 
 6.369693e-02  -1.041504e-01  0 
 8.001855e-02  -9.005561e-02  0 
 8.308301e-02  -1.180670e-01  0 
 9.963885e-02  -1.329399e-01  0 
 7.122460e-02  -1.043363e-01  0 
 1.033978e-01  -1.333460e-01  0 
 8.538554e-02  -1.113730e-01  0 
 6.076639e-02  -8.150232e-02  0 
VECTORS displacement_ITER2 FLOAT
 7.861695e-02  -8.795176e-02  0 
 1.491805e-01  -1.679511e-01  0 
 7.855027e-02  -6.389060e-02  0 
 7.858452e-02  -7.591466e-02  0 
 4.267585e-02  -8.774382e-02  0 
 5.458171e-02  -8.785344e-02  0 
 6.657333e-02  -8.791684e-02  0 
 9.642146e-02  -1.191927e-01  0 
 1.119020e-01  -1.383955e-01  0 
 1.300149e-01  -1.540161e-01  0 
 1.358376e-01  -1.470066e-01  0 
 4.120362e-02  -6.380976e-02  0 
 4.697436e-02  -7.959697e-02  0 
 5.846906e-02  -7.868024e-02  0 
 4.961003e-02  -5.898119e-02  0 
 4.980300e-02  -7.014922e-02  0 
 6.232016e-02  -6.424873e-02  0 
 7.051539e-02  -7.641979e-02  0 
 1.002594e-01  -1.025730e-01  0 
 1.099598e-01  -1.337235e-01  0 
 1.061551e-01  -1.237726e-01  0 
 1.257936e-01  -1.451773e-01  0 
 9.606060e-02  -8.877385e-02  0 
 8.299053e-02  -1.022875e-01  0 
 6.259549e-02  -9.472865e-02  0 
 7.671002e-02  -8.261186e-02  0 
 7.796058e-02  -1.067791e-01  0 
 9.378919e-02  -1.181792e-01  0 
 6.677279e-02  -9.608220e-02  0 
 9.354466e-02  -1.209178e-01  0 
 7.740816e-02  -1.024799e-01  0 
 6.034313e-02  -7.700140e-02  0 
VECTORS displacement_ITER3 FLOAT
 6.585014e-02  -5.967107e-02  0 
 9.795419e-02  -8.457298e-02  0 
 6.579342e-02  -3.989674e-02  0 
 6.582256e-02  -4.977777e-02  0 
 3.633184e-02  -5.947582e-02  0 
 4.610327e-02  -5.957948e-02  0 
 5.595114e-02  -5.964141e-02  0 
 7.954699e-02  -8.706824e-02  0 
 8.739285e-02  -1.006829e-01  0 
 9.303130e-02  -1.018760e-01  0 
 1.213049e-01  -7.064770e-02  0 
 3.508823e-02  -3.982654e-02  0 
 3.985440e-02  -5.279342e-02  0 
 4.929178e-02  -5.205048e-02  0 
 4.200702e-02  -3.585652e-02  0 
 4.216863e-02  -4.504044e-02  0 
 5.245866e-02  -4.019219e-02  0 
 5.919123e-02  -5.019202e-02  0 
 7.906681e-02  -8.105409e-02  0 
 9.047329e-02  -9.660943e-02  0 
 9.537950e-02  -8.634441e-02  0 
 1.016570e-01  -9.407425e-02  0 
 7.106111e-02  -7.016792e-02  0 
 7.081238e-02  -7.258406e-02  0 
 5.293342e-02  -6.588823e-02  0 
 5.813598e-02  -6.072669e-02  0 
 6.643245e-02  -7.679125e-02  0 
 8.103037e-02  -8.638742e-02  0 
 5.641857e-02  -6.716699e-02  0 
 7.775330e-02  -8.973072e-02  0 
 6.469487e-02  -7.332233e-02  0 
 4.654382e-02  -5.576558e-02  0 
VECTORS displacement_ITER4 FLOAT
 5.934728e-02  -5.074520e-02  0 
 8.161911e-02  -6.135636e-02  0 
 5.929560e-02  -3.559963e-02  0 
 5.932180e-02  -4.316629e-02  0 
 3.676328e-02  -5.055842e-02  0 
 4.422833e-02  -5.065608e-02  0 
 5.176299e-02  -5.071688e-02  0 
 7.215990e-02  -7.543397e-02  0 
 7.825471e-02  -8.705410e-02  0 
 8.052446e-02  -8.517496e-02  0 
 1.109916e-01  -5.180581e-02  0 
 3.577902e-02  -3.554563e-02  0 
 3.944735e-02  -4.545999e-02  0 
 4.666261e-02  -4.490234e-02  0 
 4.108275e-02  -3.250373e-02  0 
 4.120845e-02  -3.953743e-02  0 
 4.908826e-02  -3.582589e-02  0 
 5.424262e-02  -4.348039e-02  0 
 6.861020e-02  -7.601203e-02  0 
 8.214859e-02  -8.372793e-02  0 
 8.810166e-02  -7.513831e-02  0 
 9.129143e-02  -7.847397e-02  0 
 5.881385e-02  -6.606132e-02  0 
 6.458643e-02  -6.353497e-02  0 
 4.968625e-02  -5.607519e-02  0 
 4.947384e-02  -5.531307e-02  0 
 6.156536e-02  -6.586817e-02  0 
 7.471956e-02  -7.533290e-02  0 
 5.269122e-02  -5.708512e-02  0 
 7.111049e-02  -7.796077e-02  0 
 5.933158e-02  -6.275268e-02  0 
 4.159373e-02  -5.089396e-02  0 
VECTORS displacement_ITER5 FLOAT
 3.369202e-02  -2.745400e-02  0 
 6.494754e-02  -3.280567e-02  0 
 3.364906e-02  -3.006524e-02  0 
 3.366959e-02  -2.875349e-02  0 
 3.772743e-02  -2.727966e-02  0 
 3.632685e-02  -2.736660e-02  0 
 3.498668e-02  -2.742551e-02  0 
 4.729245e-02  -4.278885e-02  0 
 5.555608e-02  -4.927012e-02  0 
 6.044709e-02  -4.827468e-02  0 
 7.768430e-02  -3.019783e-02  0 
 3.770075e-02  -3.005537e-02  0 
 3.717922e-02  -2.827425e-02  0 
 3.586519e-02  -2.842572e-02  0 
 3.681990e-02  -3.057498e-02  0 
 3.681360e-02  -2.937119e-02  0 
 3.544329e-02  -3.002000e-02  0 
 3.454555e-02  -2.867981e-02  0 
 5.057509e-02  -4.165559e-02  0 
 5.977810e-02  -4.519581e-02  0 
 6.355600e-02  -3.980684e-02  0 
 6.723874e-02  -4.247766e-02  0 
 4.256562e-02  -3.450146e-02  0 
 4.821923e-02  -3.145818e-02  0 
 4.031803e-02  -2.643599e-02  0 
 3.716271e-02  -2.832071e-02  0 
 4.499849e-02  -3.201326e-02  0 
 5.428966e-02  -3.883780e-02  0 
 3.876185e-02  -2.844265e-02  0 
 5.009224e-02  -4.133208e-02  0 
 3.988979e-02  -3.193869e-02  0 
 3.571791e-02  -2.890305e-02  0 
VECTORS displacement_ITER6 FLOAT
 2.733100e-02  -1.794903e-02  0 
 6.555572e-02  -3.581712e-02  0 
 2.729989e-02  -2.135907e-02  0 
 2.731356e-02  -1.964853e-02  0 
 3.256153e-02  -1.777961e-02  0 
 3.076327e-02  -1.786617e-02  0 
 2.902615e-02  -1.792365e-02  0 
 3.991840e-02  -3.023330e-02  0 
 4.920360e-02  -3.669102e-02  0 
 5.675631e-02  -4.013078e-02  0 
 5.905183e-02  -3.810034e-02  0 
 3.260388e-02  -2.138059e-02  0 
 3.187035e-02  -1.905101e-02  0 
 3.017348e-02  -1.923250e-02  0 
 3.143331e-02  -2.205621e-02  0 
 3.141351e-02  -2.046846e-02  0 
 2.962641e-02  -2.130936e-02  0 
 2.845573e-02  -1.956147e-02  0 
 4.014311e-02  -3.128856e-02  0 
 5.092504e-02  -3.355828e-02  0 
 4.997479e-02  -3.151751e-02  0 
 5.761529e-02  -3.540606e-02  0 
 3.149548e-02  -2.334121e-02  0 
 3.775735e-02  -2.207277e-02  0 
 3.266370e-02  -1.593661e-02  0 
 2.670190e-02  -1.880429e-02  0 
 3.712569e-02  -2.050677e-02  0 
 4.436221e-02  -2.733518e-02  0 
 3.222916e-02  -1.771189e-02  0 
 4.234723e-02  -2.835858e-02  0 
 3.324478e-02  -2.053325e-02  0 
 2.736022e-02  -2.021751e-02  0 
VECTORS displacement_ITER7 FLOAT
 2.008228e-02  -1.579335e-02  0 
 5.750720e-02  -3.199549e-02  0 
 2.006726e-02  -1.758756e-02  0 
 2.007216e-02  -1.668611e-02  0 
 2.290019e-02  -1.562018e-02  0 
 2.190038e-02  -1.571640e-02  0 
 2.097138e-02  -1.577412e-02  0 
 2.960919e-02  -2.433460e-02  0 
 3.783244e-02  -2.887805e-02  0 
 4.614981e-02  -3.238381e-02  0 
 4.068109e-02  -3.840241e-02  0 
 2.285417e-02  -1.763220e-02  0 
 2.249719e-02  -1.634926e-02  0 
 2.157487e-02  -1.646640e-02  0 
 2.224723e-02  -1.797707e-02  0 
 2.223408e-02  -1.713438e-02  0 
 2.129175e-02  -1.757234e-02  0 
 2.067064e-02  -1.664040e-02  0 
 3.154977e-02  -2.122292e-02  0 
 3.905200e-02  -2.549807e-02  0 
 3.686941e-02  -2.432709e-02  0 
 4.483712e-02  -2.765599e-02  0 
 2.389011e-02  -1.368853e-02  0 
 2.757492e-02  -1.639726e-02  0 
 2.302996e-02  -1.234695e-02  0 
 1.828902e-02  -1.240585e-02  0 
 2.733851e-02  -1.610036e-02  0 
 3.307463e-02  -2.059493e-02  0 
 2.325946e-02  -1.475598e-02  0 
 3.174776e-02  -2.203680e-02  0 
 2.443448e-02  -1.702405e-02  0 
 1.862839e-02  -1.541849e-02  0 
VECTORS displacement_ITER8 FLOAT
 2.039502e-02  -1.589172e-02  0 
 4.749912e-02  -2.127262e-02  0 
 2.039228e-02  -1.286361e-02  0 
 2.039084e-02  -1.437441e-02  0 
 1.599437e-02  -1.571253e-02  0 
 1.739403e-02  -1.581989e-02  0 
 1.887472e-02  -1.587842e-02  0 
 2.637500e-02  -2.294932e-02  0 
 3.165549e-02  -2.592722e-02  0 
 3.760802e-02  -2.625075e-02  0 
 3.400467e-02  -2.965246e-02  0 
 1.567971e-02  -1.291497e-02  0 
 1.646296e-02  -1.479741e-02  0 
 1.785510e-02  -1.472298e-02  0 
 1.675674e-02  -1.228731e-02  0 
 1.677626e-02  -1.368127e-02  0 
 1.834946e-02  -1.293018e-02  0 
 1.937077e-02  -1.443928e-02  0 
 2.884051e-02  -1.737895e-02  0 
 3.352308e-02  -2.245977e-02  0 
 3.300849e-02  -2.075474e-02  0 
 3.812262e-02  -2.137546e-02  0 
 2.173965e-02  -1.043783e-02  0 
 2.423962e-02  -1.502615e-02  0 
 1.847599e-02  -1.276788e-02  0 
 1.529918e-02  -1.026582e-02  0 
 2.378625e-02  -1.668437e-02  0 
 2.906338e-02  -1.921146e-02  0 
 1.985188e-02  -1.551574e-02  0 
 2.760354e-02  -2.140721e-02  0 
 2.198868e-02  -1.779485e-02  0 
 1.402025e-02  -1.345648e-02  0 
VECTORS displacement_ITER9 FLOAT
 2.642511e-02  -1.971543e-02  0 
 3.304032e-02  -7.586809e-03  0 
 2.643761e-02  -8.160296e-03  0 
 2.642850e-02  -1.393606e-02  0 
 9.254169e-03  -1.952944e-02  0 
 1.490235e-02  -1.965052e-02  0 
 2.064390e-02  -1.970996e-02  0 
 2.727041e-02  -2.619013e-02  0 
 2.730252e-02  -2.769121e-02  0 
 2.784222e-02  -2.251719e-02  0 
 3.108287e-02  -1.719447e-02  0 
 8.473992e-03  -8.214893e-03  0 
 1.126870e-02  -1.569940e-02  0 
 1.675439e-02  -1.528558e-02  0 
 1.252424e-02  -5.871146e-03  0 
 1.260254e-02  -1.121858e-02  0 
 1.862106e-02  -8.367926e-03  0 
 2.254710e-02  -1.419414e-02  0 
 2.701252e-02  -2.176442e-02  0 
 3.005504e-02  -2.489631e-02  0 
 3.274897e-02  -2.267200e-02  0 
 3.238715e-02  -1.794118e-02  0 
 1.984947e-02  -1.559206e-02  0 
 2.335171e-02  -1.993298e-02  0 
 1.576267e-02  -1.875668e-02  0 
 1.322308e-02  -1.464162e-02  0 
 2.324331e-02  -2.336687e-02  0 
 2.811698e-02  -2.414586e-02  0 
 1.943909e-02  -2.125903e-02  0 
 2.656763e-02  -2.675769e-02  0 
 2.341946e-02  -2.382744e-02  0 
 9.767783e-03  -1.647787e-02  0 
VECTORS displacement_ITER10 FLOAT
 1.708154e-02  -1.786499e-02  0 
 1.873062e-02  2.449026e-03  0 
 1.709997e-02  -7.731800e-03  0 
 1.708759e-02  -1.279709e-02  0 
 2.056972e-03  -1.767110e-02  0 
 6.984702e-03  -1.779878e-02  0 
 1.201263e-02  -1.786084e-02  0 
 1.670872e-02  -2.244388e-02  0 
 1.553502e-02  -2.218573e-02  0 
 1.477256e-02  -1.473152e-02  0 
 2.132103e-02  -4.951925e-03  0 
 1.337259e-03  -7.794594e-03  0 
 3.805116e-03  -1.433845e-02  0 
 8.602776e-03  -1.398357e-02  0 
 4.897468e-03  -5.734801e-03  0 
 4.965182e-03  -1.042419e-02  0 
 1.024187e-02  -7.921313e-03  0 
 1.368262e-02  -1.302604e-02  0 
 1.777609e-02  -1.716297e-02  0 
 1.918261e-02  -1.907931e-02  0 
 2.348733e-02  -1.641165e-02  0 
 2.073333e-02  -1.007934e-02  0 
 1.166514e-02  -1.233468e-02  0 
 1.514322e-02  -1.571033e-02  0 
 8.053871e-03  -1.621974e-02  0 
 6.304476e-03  -1.171187e-02  0 
 1.436883e-02  -2.006862e-02  0 
 1.870044e-02  -1.949841e-02  0 
 1.095401e-02  -1.895659e-02  0 
 1.645142e-02  -2.268831e-02  0 
 1.418694e-02  -2.117651e-02  0 
 3.093603e-03  -1.409552e-02  0 
VECTORS displacement_ITER11 FLOAT
 1.130408e-02  -1.410403e-02  0 
 1.973698e-02  1.188625e-03  0 
 1.132243e-02  -9.109773e-03  0 
 1.130965e-02  -1.160548e-02  0 
 3.993195e-03  -1.390450e-02  0 
 6.348112e-03  -1.403258e-02  0 
 8.804899e-03  -1.409737e-02  0 
 1.230223e-02  -1.713465e-02  0 
 1.285423e-02  -1.639310e-02  0 
 1.402165e-02  -1.071912e-02  0 
 1.848928e-02  -2.665230e-03  0 
 3.541133e-03  -9.183925e-03  0 
 4.801366e-03  -1.234030e-02  0 
 7.125753e-03  -1.219238e-02  0 
 5.312923e-03  -8.155980e-03  0 
 5.343179e-03  -1.046083e-02  0 
 7.938954e-03  -9.220799e-03  0 
 9.628094e-03  -1.172129e-02  0 
 1.399982e-02  -1.207806e-02  0 
 1.623651e-02  -1.301815e-02  0 
 1.944121e-02  -1.077652e-02  0 
 1.815612e-02  -6.113398e-03  0 
 8.555730e-03  -7.923906e-03  0 
 1.242318e-02  -1.000924e-02  0 
 7.281151e-03  -1.102947e-02  0 
 5.050361e-03  -7.731151e-03  0 
 1.165102e-02  -1.367609e-02  0 
 1.543702e-02  -1.310503e-02  0 
 8.761123e-03  -1.382971e-02  0 
 1.315378e-02  -1.616378e-02  0 
 1.056503e-02  -1.551197e-02  0 
 3.613034e-03  -1.096124e-02  0 
VECTORS displacement_ITER12 FLOAT
 4.021325e-03  -7.576390e-03  0 
 2.241225e-02  -2.171252e-03  0 
 4.038338e-03  -8.395305e-03  0 
 4.025722e-03  -7.984193e-03  0 
 5.434875e-03  -7.371002e-03  0 
 4.880382e-03  -7.498426e-03  0 
 4.428825e-03  -7.566207e-03  0 
 7.058233e-03  -9.265765e-03  0 
 1.015258e-02  -8.618856e-03  0 
 1.417449e-02  -6.240227e-03  0 
 1.448815e-02  -2.416516e-03  0 
 5.289404e-03  -8.482909e-03  0 
 5.180735e-03  -7.806240e-03  0 
 4.707444e-03  -7.892093e-03  0 
 5.036224e-03  -8.622562e-03  0 
 5.023723e-03  -8.228467e-03  0 
 4.586037e-03  -8.417270e-03  0 
 4.293731e-03  -7.971582e-03  0 
 8.694377e-03  -5.180519e-03  0 
 1.271158e-02  -5.160870e-03  0 
 1.373246e-02  -3.750221e-03  0 
 1.530570e-02  -1.879402e-03  0 
 3.799694e-03  -1.535061e-03  0 
 8.207490e-03  -2.175194e-03  0 
 5.495172e-03  -3.111394e-03  0 
 2.344963e-03  -1.643190e-03  0 
 7.811146e-03  -4.466432e-03  0 
 1.096431e-02  -4.415126e-03  0 
 5.536358e-03  -5.801704e-03  0 
 9.042509e-03  -6.965349e-03  0 
 5.842403e-03  -6.891994e-03  0 
 3.113929e-03  -5.501512e-03  0 
VECTORS displacement_ITER13 FLOAT
 2.049721e-04  -1.832649e-03  0 
 2.125527e-02  -2.921265e-03  0 
 2.238747e-04  -4.040829e-03  0 
 2.099424e-04  -2.935275e-03  0 
 3.714139e-03  -1.618719e-03  0 
 2.456970e-03  -1.750113e-03  0 
 1.307902e-03  -1.821089e-03  0 
 3.749509e-03  -3.150745e-03  0 
 7.643928e-03  -3.030434e-03  0 
 1.257652e-02  -2.774798e-03  0 
 1.047905e-02  -1.675147e-03  0 
 3.639010e-03  -4.139556e-03  0 
 3.201789e-03  -2.538084e-03  0 
 2.055220e-03  -2.681043e-03  0 
 2.900520e-03  -4.558018e-03  0 
 2.876183e-03  -3.514966e-03  0 
 1.709956e-03  -4.044665e-03  0 
 9.434072e-04  -2.892800e-03  0 
 3.767948e-03  -9.869649e-04  0 
 9.280411e-03  -7.754482e-05  0 
 8.765625e-03  5.853246e-04  0 
 1.195475e-02  9.677752e-04  0 
 -7.934100e-04  2.307940e-03  0 
 4.096524e-03  2.742512e-03  0 
 2.697527e-03  2.400659e-03  0 
 -1.014439e-03  2.560023e-03  0 
 4.368439e-03  1.598674e-03  0 
 6.974945e-03  1.103107e-03  0 
 2.569316e-03  1.864964e-04  0 
 5.728706e-03  -7.425230e-04  0 
 2.547071e-03  -6.164075e-04  0 
 6.761298e-04  -7.474690e-04  0 
VECTORS displacement_ITER14 FLOAT
 4.124191e-03  -3.065920e-03  0 
 1.863825e-02  1.112772e-03  0 
 4.146444e-03  -3.180817e-03  0 
 4.130843e-03  -3.122315e-03  0 
 4.504358e-03  -2.845904e-03  0 
 4.285915e-03  -2.983263e-03  0 
 4.181414e-03  -3.055711e-03  0 
 6.433724e-03  -4.490598e-03  0 
 8.871342e-03  -4.105122e-03  0 
 1.207272e-02  -2.315986e-03  0 
 1.256967e-02  1.155528e-03  0 
 4.310025e-03  -3.280044e-03  0 
 4.368582e-03  -3.053052e-03  0 
 4.224636e-03  -3.113324e-03  0 
 4.301984e-03  -3.277762e-03  0 
 4.292263e-03  -3.205243e-03  0 
 4.215612e-03  -3.219684e-03  0 
 4.161919e-03  -3.127155e-03  0 
 6.490766e-03  -2.212582e-03  0 
 1.083636e-02  -1.395542e-03  0 
 1.137817e-02  -3.454268e-04  0 
 1.297239e-02  1.162588e-03  0 
 2.377288e-03  5.661902e-04  0 
 6.766106e-03  9.747317e-04  0 
 4.727168e-03  3.377175e-04  0 
 1.944765e-03  1.111870e-03  0 
 6.745930e-03  -7.089418e-04  0 
 9.268855e-03  -7.617730e-04  0 
 4.947200e-03  -1.730973e-03  0 
 7.895406e-03  -2.734051e-03  0 
 5.345415e-03  -2.612619e-03  0 
 2.777477e-03  -1.539472e-03  0 
VECTORS displacement_ITER15 FLOAT
 5.789241e-03  -2.992069e-03  0 
 9.783194e-03  8.147788e-03  0 
 5.815352e-03  1.067590e-03  0 
 5.797945e-03  -9.617177e-04  0 
 -7.763880e-05  -2.763658e-03  0 
 1.780118e-03  -2.909883e-03  0 
 3.760517e-03  -2.983763e-03  0 
 6.250581e-03  -5.243686e-03  0 
 6.385712e-03  -4.913320e-03  0 
 6.788648e-03  -9.975736e-04  0 
 1.131111e-02  5.855109e-03  0 
 -5.018224e-04  9.718136e-04  0 
 5.406568e-04  -1.546291e-03  0 
 2.398994e-03  -1.440264e-03  0 
 9.439155e-04  1.811810e-03  0 
 9.634556e-04  -5.077977e-05  0 
 3.059849e-03  9.613132e-04  0 
 4.428531e-03  -1.059875e-03  0 
 6.083812e-03  -3.071825e-03  0 
 8.689887e-03  -2.749817e-03  0 
 1.076181e-02  -1.103066e-03  0 
 1.005628e-02  1.953212e-03  0 
 2.770512e-03  -9.222400e-04  0 
 6.027621e-03  -6.724596e-04  0 
 2.635693e-03  -1.386588e-03  0 
 1.691229e-03  4.989647e-04  0 
 5.535803e-03  -3.103930e-03  0 
 8.078577e-03  -2.751337e-03  0 
 3.611217e-03  -3.094696e-03  0 
 6.640281e-03  -4.786630e-03  0 
 4.970446e-03  -4.214766e-03  0 
 7.380485e-04  -6.305792e-04  0 
VECTORS displacement_ITER16 FLOAT
 2.793841e-03  -3.883527e-03  0 
 1.311006e-02  -7.713897e-04  0 
 2.816631e-03  -2.772429e-03  0 
 2.800748e-03  -3.327158e-03  0 
 1.350556e-03  -3.652466e-03  0 
 1.733360e-03  -3.797669e-03  0 
 2.239274e-03  -3.872396e-03  0 
 4.804530e-03  -6.095598e-03  0 
 6.690726e-03  -6.418129e-03  0 
 8.957499e-03  -5.082359e-03  0 
 1.020422e-02  -2.726879e-03  0 
 1.084740e-03  -2.870025e-03  0 
 1.430317e-03  -3.448191e-03  0 
 1.870529e-03  -3.459586e-03  0 
 1.501448e-03  -2.624121e-03  0 
 1.499681e-03  -3.117850e-03  0 
 2.056097e-03  -2.831462e-03  0 
 2.420453e-03  -3.359229e-03  0 
 5.547403e-03  -3.716940e-03  0 
 8.303252e-03  -4.331487e-03  0 
 8.842508e-03  -3.077945e-03  0 
 1.030056e-02  -2.496732e-03  0 
 3.163677e-03  -1.718578e-03  0 
 5.188051e-03  -1.465683e-03  0 
 2.727497e-03  -1.875522e-03  0 
 2.618609e-03  -2.977430e-04  0 
 4.486275e-03  -3.168984e-03  0 
 6.822543e-03  -3.382812e-03  0 
 2.758209e-03  -3.453049e-03  0 
 5.682801e-03  -5.042660e-03  0 
 3.435260e-03  -4.316793e-03  0 
 2.240088e-03  -1.355851e-03  0 
VECTORS displacement_ITER17 FLOAT
 2.627230e-03  -3.980074e-03  0 
 1.116626e-02  -2.491643e-03  0 
 2.650352e-03  -3.051684e-03  0 
 2.634325e-03  -3.515169e-03  0 
 1.457925e-03  -3.750987e-03  0 
 1.750087e-03  -3.894728e-03  0 
 2.164354e-03  -3.969018e-03  0 
 4.425164e-03  -6.092080e-03  0 
 5.989022e-03  -6.584799e-03  0 
 7.774617e-03  -5.718540e-03  0 
 7.443664e-03  -5.514911e-03  0 
 1.204533e-03  -3.149923e-03  0 
 1.505285e-03  -3.607909e-03  0 
 1.857513e-03  -3.626239e-03  0 
 1.556533e-03  -2.941442e-03  0 
 1.553255e-03  -3.349446e-03  0 
 2.013248e-03  -3.108125e-03  0 
 2.315347e-03  -3.543363e-03  0 
 5.007484e-03  -4.902156e-03  0 
 7.107313e-03  -5.079732e-03  0 
 7.338463e-03  -4.499916e-03  0 
 8.546691e-03  -3.809028e-03  0 
 3.145246e-03  -3.142054e-03  0 
 4.623786e-03  -2.776693e-03  0 
 2.607567e-03  -2.619160e-03  0 
 2.725348e-03  -1.431411e-03  0 
 4.027374e-03  -3.828743e-03  0 
 5.875471e-03  -4.259149e-03  0 
 2.605928e-03  -3.788148e-03  0 
 5.047883e-03  -5.375268e-03  0 
 3.186553e-03  -4.526033e-03  0 
 2.362638e-03  -1.926836e-03  0 
VECTORS displacement_ITER18 FLOAT
 3.425609e-03  -3.960176e-03  0 
 7.766801e-03  -8.470918e-04  0 
 3.450642e-03  -1.943795e-03  0 
 3.433694e-03  -2.951516e-03  0 
 6.254836e-04  -3.732665e-03  0 
 1.461370e-03  -3.876279e-03  0 
 2.419202e-03  -3.950192e-03  0 
 4.434417e-03  -6.032625e-03  0 
 5.048850e-03  -6.453041e-03  0 
 5.684221e-03  -5.012409e-03  0 
 5.991073e-03  -4.140635e-03  0 
 3.163417e-04  -2.043225e-03  0 
 8.716915e-04  -3.215599e-03  0 
 1.746438e-03  -3.190264e-03  0 
 1.046457e-03  -1.616102e-03  0 
 1.050502e-03  -2.527527e-03  0 
 2.077054e-03  -2.018313e-03  0 
 2.749691e-03  -3.004365e-03  0 
 4.522265e-03  -5.757729e-03  0 
 6.041004e-03  -5.401614e-03  0 
 6.703233e-03  -5.050126e-03  0 
 6.840480e-03  -3.547673e-03  0 
 2.796395e-03  -4.140896e-03  0 
 4.268601e-03  -3.670666e-03  0 
 2.176790e-03  -3.244292e-03  0 
 2.295951e-03  -2.084407e-03  0 
 3.779204e-03  -4.599184e-03  0 
 5.347230e-03  -4.981870e-03  0 
 2.516512e-03  -4.178289e-03  0 
 4.638889e-03  -5.838137e-03  0 
 3.311196e-03  -4.926103e-03  0 
 1.663758e-03  -2.174262e-03  0 
VECTORS displacement_ITER19 FLOAT
 2.459134e-03  -2.936418e-03  0 
 7.060735e-03  -2.006581e-03  0 
 2.484081e-03  -1.950793e-03  0 
 2.467111e-03  -2.443115e-03  0 
 1.202199e-03  -2.711902e-03  0 
 1.525280e-03  -2.852796e-03  0 
 1.968194e-03  -2.926037e-03  0 
 3.688493e-03  -4.734280e-03  0 
 4.494036e-03  -5.227914e-03  0 
 5.195759e-03  -4.409028e-03  0 
 5.083236e-03  -3.865378e-03  0 
 9.557781e-04  -2.054307e-03  0 
 1.262612e-03  -2.546559e-03  0 
 1.642613e-03  -2.561493e-03  0 
 1.323598e-03  -1.834580e-03  0 
 1.319252e-03  -2.265500e-03  0 
 1.807445e-03  -2.009402e-03  0 
 2.128826e-03  -2.473248e-03  0 
 3.352695e-03  -5.490136e-03  0 
 5.165908e-03  -4.471703e-03  0 
 5.575882e-03  -4.480852e-03  0 
 5.762519e-03  -3.321459e-03  0 
 1.674130e-03  -3.842422e-03  0 
 3.532965e-03  -2.875408e-03  0 
 2.004630e-03  -2.105091e-03  0 
 1.633512e-03  -1.440528e-03  0 
 3.233314e-03  -3.334225e-03  0 
 4.530884e-03  -3.977167e-03  0 
 2.193472e-03  -2.947844e-03  0 
 3.964839e-03  -4.501341e-03  0 
 2.712424e-03  -3.590233e-03  0 
 1.519568e-03  -1.593688e-03  0 
VECTORS displacement_ITER20 FLOAT
 2.289562e-03  -2.589562e-03  0 
 7.472820e-03  -3.262271e-03  0 
 2.314282e-03  -2.447033e-03  0 
 2.297436e-03  -2.517802e-03  0 
 2.292736e-03  -2.369465e-03  0 
 2.197619e-03  -2.507456e-03  0 
 2.220108e-03  -2.579255e-03  0 
 3.644608e-03  -4.020671e-03  0 
 4.664557e-03  -4.478184e-03  0 
 5.594984e-03  -4.162555e-03  0 
 5.470992e-03  -3.443825e-03  0 
 2.097479e-03  -2.551714e-03  0 
 2.201718e-03  -2.490663e-03  0 
 2.178304e-03  -2.538003e-03  0 
 2.169798e-03  -2.501704e-03  0 
 2.158850e-03  -2.541112e-03  0 
 2.207772e-03  -2.491990e-03  0 
 2.242033e-03  -2.529303e-03  0 
 3.102061e-03  -5.056744e-03  0 
 5.147039e-03  -3.828769e-03  0 
 5.353324e-03  -3.907094e-03  0 
 5.729262e-03  -3.247904e-03  0 
 1.571216e-03  -3.555172e-03  0 
 3.588133e-03  -2.319476e-03  0 
 2.545985e-03  -1.605263e-03  0 
 1.941689e-03  -1.280256e-03  0 
 3.406586e-03  -2.576894e-03  0 
 4.508855e-03  -3.269978e-03  0 
 2.558380e-03  -2.381844e-03  0 
 4.029542e-03  -3.658690e-03  0 
 2.833309e-03  -2.895200e-03  0 
 2.197972e-03  -1.546281e-03  0 
VECTORS displacement_ITER21 FLOAT
 3.328846e-03  -3.145638e-03  0 
 5.626202e-03  -1.959943e-03  0 
 3.355291e-03  -2.021342e-03  0 
 3.337717e-03  -2.583260e-03  0 
 1.857096e-03  -2.930177e-03  0 
 2.254530e-03  -3.067069e-03  0 
 2.768679e-03  -3.137116e-03  0 
 3.838364e-03  -4.195159e-03  0 
 4.134839e-03  -4.341510e-03  0 
 4.440768e-03  -3.480725e-03  0 
 5.340772e-03  -1.542232e-03  0 
 1.610408e-03  -2.124170e-03  0 
 1.946312e-03  -2.712276e-03  0 
 2.396360e-03  -2.719434e-03  0 
 2.025861e-03  -1.876599e-03  0 
 2.022026e-03  -2.373037e-03  0 
 2.584270e-03  -2.081769e-03  0 
 2.953085e-03  -2.617019e-03  0 
 3.450302e-03  -4.584060e-03  0 
 4.670856e-03  -3.785280e-03  0 
 5.299990e-03  -3.595916e-03  0 
 4.981872e-03  -2.667818e-03  0 
 2.267620e-03  -3.487394e-03  0 
 3.769632e-03  -2.706204e-03  0 
 2.605507e-03  -2.469358e-03  0 
 2.446887e-03  -1.767020e-03  0 
 3.527693e-03  -3.332655e-03  0 
 4.433618e-03  -3.585979e-03  0 
 2.811957e-03  -3.156819e-03  0 
 3.969595e-03  -4.068070e-03  0 
 3.246922e-03  -3.608164e-03  0 
 2.300264e-03  -1.949566e-03  0 
VECTORS displacement_ITER22 FLOAT
 3.308376e-03  -3.561441e-03  0 
 5.431999e-03  -3.212143e-03  0 
 3.336084e-03  -1.906254e-03  0 
 3.317993e-03  -2.733849e-03  0 
 1.036886e-03  -3.351179e-03  0 
 1.702248e-03  -3.486196e-03  0 
 2.482698e-03  -3.554518e-03  0 
 3.293238e-03  -4.094030e-03  0 
 3.477138e-03  -4.084628e-03  0 
 4.055618e-03  -3.581884e-03  0 
 4.550218e-03  -2.210250e-03  0 
 7.613706e-04  -2.007707e-03  0 
 1.224626e-03  -2.948318e-03  0 
 1.931565e-03  -2.933495e-03  0 
 1.364258e-03  -1.652715e-03  0 
 1.364612e-03  -2.397777e-03  0 
 2.205710e-03  -1.974952e-03  0 
 2.755385e-03  -2.779780e-03  0 
 3.531100e-03  -2.870409e-03  0 
 3.851568e-03  -3.489649e-03  0 
 4.277042e-03  -2.981615e-03  0 
 4.269109e-03  -2.789519e-03  0 
 2.865675e-03  -2.154195e-03  0 
 3.204496e-03  -2.524411e-03  0 
 2.057762e-03  -2.921812e-03  0 
 2.608536e-03  -1.610274e-03  0 
 2.899196e-03  -3.531758e-03  0 
 3.592468e-03  -3.336527e-03  0 
 2.336750e-03  -3.577647e-03  0 
 3.290261e-03  -3.943279e-03  0 
 2.860240e-03  -3.897958e-03  0 
 2.085929e-03  -1.958147e-03  0 
VECTORS displacement_ITER23 FLOAT
 2.044872e-03  -3.087735e-03  0 
 7.548590e-03  -6.284525e-03  0 
 2.070784e-03  -2.900540e-03  0 
 2.053622e-03  -2.993988e-03  0 
 1.969317e-03  -2.881682e-03  0 
 1.905178e-03  -3.013057e-03  0 
 1.952667e-03  -3.080300e-03  0 
 2.693406e-03  -3.338392e-03  0 
 3.798378e-03  -3.533246e-03  0 
 5.467572e-03  -4.332896e-03  0 
 4.833310e-03  -4.631043e-03  0 
 1.775595e-03  -3.002376e-03  0 
 1.892256e-03  -2.979009e-03  0 
 1.895533e-03  -3.022213e-03  0 
 1.867246e-03  -2.942323e-03  0 
 1.857185e-03  -3.007275e-03  0 
 1.934061e-03  -2.945075e-03  0 
 1.983623e-03  -3.006963e-03  0 
 3.363341e-03  -1.311540e-03  0 
 3.899021e-03  -2.848733e-03  0 
 3.520162e-03  -2.232458e-03  0 
 4.833564e-03  -3.579844e-03  0 
 2.949901e-03  -7.701810e-04  0 
 2.782324e-03  -1.541320e-03  0 
 2.215174e-03  -2.082501e-03  0 
 2.724457e-03  -1.070583e-03  0 
 2.534044e-03  -2.304278e-03  0 
 3.124161e-03  -2.231746e-03  0 
 2.114401e-03  -2.698899e-03  0 
 2.985660e-03  -2.776815e-03  0 
 2.288734e-03  -2.852164e-03  0 
 2.571615e-03  -1.701108e-03  0 
VECTORS displacement_ITER24 FLOAT
 3.119427e-03  -3.232637e-03  0 
 4.313300e-03  -2.502610e-03  0 
 3.145168e-03  -2.301505e-03  0 
 3.128239e-03  -2.766937e-03  0 
 1.925941e-03  -3.028751e-03  0 
 2.235511e-03  -3.159404e-03  0 
 2.655215e-03  -3.225870e-03  0 
 3.297035e-03  -3.728077e-03  0 
 3.548745e-03  -3.835806e-03  0 
 3.923223e-03  -3.559363e-03  0 
 5.499059e-03  -1.857197e-03  0 
 1.695624e-03  -2.401357e-03  0 
 1.985840e-03  -2.868865e-03  0 
 2.347658e-03  -2.882077e-03  0 
 2.045552e-03  -2.192215e-03  0 
 2.040677e-03  -2.602276e-03  0 
 2.505839e-03  -2.357104e-03  0 
 2.808886e-03  -2.796224e-03  0 
 3.660085e-03  -2.333571e-03  0 
 3.926734e-03  -3.376297e-03  0 
 4.294181e-03  -2.563658e-03  0 
 4.522720e-03  -3.021152e-03  0 
 3.174971e-03  -2.079897e-03  0 
 3.317263e-03  -2.446161e-03  0 
 2.573798e-03  -2.829852e-03  0 
 2.832239e-03  -2.210538e-03  0 
 3.052445e-03  -3.172136e-03  0 
 3.627275e-03  -3.085397e-03  0 
 2.644135e-03  -3.235758e-03  0 
 3.360487e-03  -3.583560e-03  0 
 2.942464e-03  -3.456052e-03  0 
 2.433275e-03  -2.398423e-03  0 
VECTORS displacement_ITER25 FLOAT
 3.039573e-03  -2.510574e-03  0 
 3.884018e-03  -1.960030e-03  0 
 3.063744e-03  -1.860075e-03  0 
 3.047690e-03  -2.185041e-03  0 
 2.263424e-03  -2.308647e-03  0 
 2.435421e-03  -2.437672e-03  0 
 2.715344e-03  -2.503516e-03  0 
 3.428527e-03  -3.248052e-03  0 
 3.694150e-03  -3.543307e-03  0 
 3.876453e-03  -3.366331e-03  0 
 5.510967e-03  -1.850535e-03  0 
 2.053288e-03  -1.959508e-03  0 
 2.274018e-03  -2.242847e-03  0 
 2.502157e-03  -2.266914e-03  0 
 2.303582e-03  -1.807269e-03  0 
 2.296201e-03  -2.086432e-03  0 
 2.615216e-03  -1.910251e-03  0 
 2.822674e-03  -2.207575e-03  0 
 3.539603e-03  -2.502998e-03  0 
 3.996657e-03  -3.251621e-03  0 
 4.293495e-03  -2.569966e-03  0 
 4.549227e-03  -2.984507e-03  0 
 2.980487e-03  -2.297084e-03  0 
 3.276429e-03  -2.426260e-03  0 
 2.732317e-03  -2.442886e-03  0 
 2.595404e-03  -2.461065e-03  0 
 3.135870e-03  -2.740851e-03  0 
 3.676069e-03  -2.917971e-03  0 
 2.774479e-03  -2.617747e-03  0 
 3.468359e-03  -3.211025e-03  0 
 3.005417e-03  -2.832611e-03  0 
 2.288801e-03  -2.392293e-03  0 
VECTORS displacement_ITER26 FLOAT
 2.141244e-03  -1.713233e-03  0 
 5.270708e-03  -3.632582e-03  0 
 2.163894e-03  -1.798821e-03  0 
 2.148673e-03  -1.755623e-03  0 
 2.465483e-03  -1.513485e-03  0 
 2.272134e-03  -1.640777e-03  0 
 2.184644e-03  -1.705931e-03  0 
 2.879120e-03  -2.366539e-03  0 
 3.609437e-03  -2.761603e-03  0 
 4.447943e-03  -3.297152e-03  0 
 4.611943e-03  -3.284923e-03  0 
 2.296535e-03  -1.897638e-03  0 
 2.343426e-03  -1.698193e-03  0 
 2.219102e-03  -1.751446e-03  0 
 2.290623e-03  -1.893397e-03  0 
 2.277910e-03  -1.831838e-03  0 
 2.214116e-03  -1.836453e-03  0 
 2.170773e-03  -1.761408e-03  0 
 3.394519e-03  -1.329927e-03  0 
 3.674499e-03  -2.448540e-03  0 
 3.464180e-03  -1.959783e-03  0 
 4.366735e-03  -2.894039e-03  0 
 3.098084e-03  -1.207897e-03  0 
 2.809565e-03  -1.709868e-03  0 
 2.580516e-03  -1.686261e-03  0 
 2.545987e-03  -1.946726e-03  0 
 2.690386e-03  -1.731245e-03  0 
 3.118162e-03  -1.980387e-03  0 
 2.415217e-03  -1.704016e-03  0 
 3.038607e-03  -2.153099e-03  0 
 2.464935e-03  -1.813553e-03  0 
 2.305601e-03  -1.937872e-03  0 
VECTORS displacement_ITER27 FLOAT
 2.496179e-03  -2.063114e-03  0 
 4.711481e-03  -3.263279e-03  0 