# vtk DataFile Version 3.1
this is an vtk file created by FEMAC
ASCII
DATASET UNSTRUCTURED_GRID
POINTS 34 FLOAT
3.000000 1.000000 0.000000
4.000000 1.000000 0.000000
3.000000 1.250000 0.000000
3.000000 1.500000 0.000000
3.000000 1.750000 0.000000
3.500000 1.000000 0.000000
3.750000 1.000000 0.000000
4.000000 1.250000 0.000000
4.000000 1.500000 0.000000
4.250000 1.000000 0.000000
4.500000 1.000000 0.000000
2.661856 1.507893 0.000000
2.832250 1.761003 0.000000
2.832172 1.245757 0.000000
3.638134 0.825570 0.000000
3.835146 0.847123 0.000000
3.218472 1.189265 0.000000
3.400214 1.786986 0.000000
3.624223 1.213075 0.000000
3.182276 1.370472 0.000000
3.378554 1.338380 0.000000
3.237145 1.579099 0.000000
3.809442 1.354171 0.000000
3.817501 1.632951 0.000000
3.559152 1.528294 0.000000
3.836733 1.163449 0.000000
4.178278 1.324222 0.000000
4.225000 1.500000 0.000000
4.391405 1.203564 0.000000
4.408689 1.438835 0.000000
4.358519 1.602133 0.000000
4.628796 1.390176 0.000000
4.544074 1.619719 0.000000
4.163937 1.155557 0.000000
CELLS 42 168 
3 2 13  0
3 12  3  4
3 12 11  3
3 3 13  2
3 11 13  3
3 14  6  5
3 6 15  1
3 14 15  6
3 2 19  3
3 6 18  5
3 20 19 16
3 16 19  2
3 0 16  2
3 19 21  3
3 21  4  3
3 21 19 20
3 8 22  7
3 8 23 22
3 6 25 18
3 7 25  1
3 25  6  1
3 22 25  7
3 22 18 25
3 18 24 20
3 24 18 22
3 24 22 23
3 24 21 20
3 21 24 17
3 26  8  7
3 26 27  8
3 26 29 27
3 28  9 10
3 28 29 26
3 27 29 30
3 33  7  1
3 9 33  1
3 7 33 26
3 28 33  9
3 28 26 33
3 32 30 29
3 32 29 31
3 31 29 28
CELL_TYPES 42
5 5 5 5 5 5 5 5 5 5 5 5 5 5 5 5 5 5 5 5 5 5 5 5 5 5 5 5 5 5 5 5 5 5 5 5 5 5 5 5 5 5 
POINT_DATA 34
VECTORS displacement_ITER1 FLOAT
 -9.656975e-02  -1.297795e-01  0 
 -9.718674e-02  -2.009550e-01  0 
 -7.904534e-02  -1.297571e-01  0 
 -6.140803e-02  -1.296864e-01  0 
 -4.375471e-02  -1.297111e-01  0 
 -9.714506e-02  -1.651070e-01  0 
 -9.715576e-02  -1.830281e-01  0 
 -7.927893e-02  -2.009082e-01  0 
 -6.138453e-02  -2.008903e-01  0 
 -1.152484e-01  -2.479612e-01  0 
 -1.286273e-01  -3.019381e-01  0 
 -5.496954e-02  -9.861406e-02  0 
 -4.485849e-02  -1.133840e-01  0 
 -7.657703e-02  -1.151206e-01  0 
 -1.009243e-01  -1.720743e-01  0 
 -1.031382e-01  -1.876041e-01  0 
 -8.332632e-02  -1.451294e-01  0 
 -4.105107e-02  -1.580534e-01  0 
 -8.187678e-02  -1.740079e-01  0 
 -7.057885e-02  -1.425757e-01  0 
 -7.286796e-02  -1.564476e-01  0 
 -5.580452e-02  -1.464548e-01  0 
 -7.181529e-02  -1.872429e-01  0 
 -5.187526e-02  -1.878223e-01  0 
 -5.936511e-02  -1.693059e-01  0 
 -8.545504e-02  -1.892249e-01  0 
 -7.762921e-02  -2.290898e-01  0 
 -6.953800e-02  -2.340985e-01  0 
 -8.964543e-02  -2.614267e-01  0 
 -7.871022e-02  -2.586748e-01  0 
 -7.409109e-02  -2.487987e-01  0 
 -8.369853e-02  -2.749246e-01  0 
 -8.291059e-02  -2.687993e-01  0 
 -8.977605e-02  -2.251457e-01  0 
VECTORS displacement_ITER2 FLOAT
 -6.038518e-02  -1.231682e-01  0 
 -6.091868e-02  -1.798030e-01  0 
 -4.647604e-02  -1.231447e-01  0 
 -3.244764e-02  -1.230664e-01  0 
 -1.837485e-02  -1.230624e-01  0 
 -6.088341e-02  -1.512848e-01  0 
 -6.089526e-02  -1.655389e-01  0 
 -4.667499e-02  -1.797622e-01  0 
 -3.244328e-02  -1.797501e-01  0 
 -6.699085e-02  -2.093162e-01  0 
 -6.406834e-02  -2.212821e-01  0 
 -2.459950e-02  -9.323405e-02  0 
 -1.829713e-02  -1.054533e-01  0 
 -4.423053e-02  -1.106074e-01  0 
 -6.516936e-02  -1.570067e-01  0 
 -6.740367e-02  -1.702058e-01  0 
 -4.987903e-02  -1.353616e-01  0 
 -1.625923e-02  -1.456486e-01  0 
 -4.874184e-02  -1.583611e-01  0 
 -3.974872e-02  -1.333334e-01  0 
 -4.156947e-02  -1.443747e-01  0 
 -2.799252e-02  -1.364212e-01  0 
 -4.073916e-02  -1.688937e-01  0 
 -2.487836e-02  -1.693581e-01  0 
 -3.082982e-02  -1.546111e-01  0 
 -5.158718e-02  -1.704695e-01  0 
 -4.630471e-02  -1.992372e-01  0 
 -3.964050e-02  -2.027756e-01  0 
 -5.585012e-02  -2.190565e-01  0 
 -4.636877e-02  -2.202577e-01  0 
 -4.228213e-02  -2.138597e-01  0 
 -4.949239e-02  -2.344808e-01  0 
 -4.761349e-02  -2.304793e-01  0 
 -5.452962e-02  -1.975744e-01  0 
VECTORS displacement_ITER3 FLOAT
 -6.150752e-02  -7.981186e-02  0 
 -6.199170e-02  -1.187734e-01  0 
 -5.201288e-02  -7.978162e-02  0 
 -4.238073e-02  -7.968482e-02  0 
 -3.266107e-02  -7.964113e-02  0 
 -6.196290e-02  -9.913139e-02  0 
 -6.197520e-02  -1.089453e-01  0 
 -5.218637e-02  -1.187330e-01  0 
 -4.239538e-02  -1.187268e-01  0 
 -5.857198e-02  -1.301276e-01  0 
 -4.435094e-02  -1.050378e-01  0 
 -3.273093e-02  -5.376021e-02  0 
 -3.107250e-02  -6.135377e-02  0 
 -4.986098e-02  -7.049738e-02  0 
 -6.757983e-02  -1.034651e-01  0 
 -6.949989e-02  -1.135130e-01  0 
 -5.434666e-02  -8.814976e-02  0 
 -3.126540e-02  -9.522875e-02  0 
 -5.360614e-02  -1.040004e-01  0 
 -4.740761e-02  -8.676092e-02  0 
 -4.865948e-02  -9.435454e-02  0 
 -3.932372e-02  -8.888494e-02  0 
 -4.810268e-02  -1.112550e-01  0 
 -3.719192e-02  -1.115845e-01  0 
 -4.127860e-02  -1.014055e-01  0 
 -5.556516e-02  -1.123402e-01  0 
 -5.275871e-02  -1.270876e-01  0 
 -4.807316e-02  -1.281173e-01  0 
 -6.006967e-02  -1.336373e-01  0 
 -5.200433e-02  -1.364469e-01  0 
 -4.852881e-02  -1.335527e-01  0 
 -5.409534e-02  -1.472148e-01  0 
 -5.005130e-02  -1.435076e-01  0 
 -5.716726e-02  -1.281354e-01  0 
VECTORS displacement_ITER4 FLOAT
 -5.956758e-02  -7.836295e-02  0 
 -6.012844e-02  -1.069595e-01  0 
 -5.269779e-02  -7.832388e-02  0 
 -4.566833e-02  -7.820809e-02  0 
 -3.852786e-02  -7.814975e-02  0 
 -6.009624e-02  -9.245934e-02  0 
 -6.010851e-02  -9.970368e-02  0 
 -5.289355e-02  -1.069104e-01  0 
 -4.568048e-02  -1.069031e-01  0 
 -5.911242e-02  -1.148655e-01  0 
 -4.834483e-02  -9.074072e-02  0 
 -3.506951e-02  -5.644087e-02  0 
 -3.624873e-02  -6.101328e-02  0 
 -5.033446e-02  -7.140759e-02  0 
 -6.592050e-02  -9.617088e-02  0 
 -6.759418e-02  -1.038797e-01  0 
 -5.439898e-02  -8.440817e-02  0 
 -3.753759e-02  -8.960093e-02  0 
 -5.392857e-02  -9.605257e-02  0 
 -4.935316e-02  -8.339608e-02  0 
 -5.027271e-02  -8.894806e-02  0 
 -4.343451e-02  -8.494998e-02  0 
 -4.988361e-02  -1.013970e-01  0 
 -4.185501e-02  -1.016515e-01  0 
 -4.486088e-02  -9.413049e-02  0 
 -5.537940e-02  -1.022029e-01  0 
 -5.351633e-02  -1.112547e-01  0 
 -4.902974e-02  -1.122694e-01  0 
 -6.048813e-02  -1.160483e-01  0 
 -5.188076e-02  -1.183558e-01  0 
 -4.768978e-02  -1.165206e-01  0 
 -5.423898e-02  -1.288458e-01  0 
 -4.776675e-02  -1.243306e-01  0 
 -5.713757e-02  -1.128159e-01  0 
VECTORS displacement_ITER5 FLOAT
 -3.719326e-02  -5.984067e-02  0 
 -3.806314e-02  -6.419456e-02  0 
 -3.650101e-02  -5.978124e-02  0 
 -3.559790e-02  -5.962568e-02  0 
 -3.455801e-02  -5.956590e-02  0 
 -3.801258e-02  -6.163325e-02  0 
 -3.802412e-02  -6.291278e-02  0 
 -3.680019e-02  -6.411152e-02  0 
 -3.558241e-02  -6.408929e-02  0 
 -5.699887e-02  -8.218805e-02  0 
 -7.238527e-02  -1.037608e-01  0 
 -2.442492e-02  -4.996708e-02  0 
 -3.206704e-02  -4.872658e-02  0 
 -3.343946e-02  -5.837418e-02  0 
 -4.085206e-02  -6.268001e-02  0 
 -4.238067e-02  -6.469493e-02  0 
 -3.671398e-02  -6.048965e-02  0 
 -3.445969e-02  -6.126153e-02  0 
 -3.692520e-02  -6.226786e-02  0 
 -3.612511e-02  -6.036103e-02  0 
 -3.626906e-02  -6.110493e-02  0 
 -3.529316e-02  -6.057267e-02  0 
 -3.628351e-02  -6.315675e-02  0 
 -3.496642e-02  -6.323104e-02  0 
 -3.546287e-02  -6.191068e-02  0 
 -3.720359e-02  -6.332430e-02  0 
 -3.766648e-02  -6.726478e-02  0 
 -3.560831e-02  -6.908179e-02  0 
 -4.480056e-02  -7.939313e-02  0 
 -3.800806e-02  -7.526259e-02  0 
 -3.529826e-02  -7.248385e-02  0 
 -4.228433e-02  -8.276940e-02  0 
 -3.712568e-02  -7.574721e-02  0 
 -4.087762e-02  -6.760546e-02  0 
VECTORS displacement_ITER6 FLOAT
 -2.415806e-02  -4.247787e-02  0 
 -2.521163e-02  -4.001067e-02  0 
 -2.523923e-02  -4.240655e-02  0 
 -2.608088e-02  -4.222830e-02  0 
 -2.677273e-02  -4.216879e-02  0 
 -2.514970e-02  -4.074963e-02  0 
 -2.516122e-02  -4.038242e-02  0 
 -2.560130e-02  -3.990477e-02  0 
 -2.605282e-02  -3.986870e-02  0 
 -4.949717e-02  -6.041480e-02  0 
 -6.948283e-02  -8.943151e-02  0 
 -1.534021e-02  -3.828909e-02  0 
 -2.441190e-02  -3.486726e-02  0 
 -2.187737e-02  -4.297240e-02  0 
 -2.889135e-02  -4.188358e-02  0 
 -3.006144e-02  -4.219951e-02  0 
 -2.502861e-02  -4.157810e-02  0 
 -2.692044e-02  -4.109884e-02  0 
 -2.546385e-02  -4.056852e-02  0 
 -2.571365e-02  -4.169920e-02  0 
 -2.564052e-02  -4.107435e-02  0 
 -2.632275e-02  -4.152812e-02  0 
 -2.577539e-02  -4.021332e-02  0 
 -2.633576e-02  -4.023813e-02  0 
 -2.613172e-02  -4.064817e-02  0 
 -2.542294e-02  -4.021025e-02  0 
 -2.673620e-02  -4.251080e-02  0 
 -2.429061e-02  -4.556522e-02  0 
 -3.433310e-02  -5.665986e-02  0 
 -2.640288e-02  -5.255176e-02  0 
 -2.263149e-02  -5.035178e-02  0 
 -3.084659e-02  -6.080707e-02  0 
 -2.392151e-02  -5.449246e-02  0 
 -2.982977e-02  -4.268882e-02  0 
VECTORS displacement_ITER7 FLOAT
 -1.965233e-02  -3.026986e-02  0 
 -2.077888e-02  -3.221091e-02  0 
 -1.965862e-02  -3.019215e-02  0 
 -1.941080e-02  -3.000191e-02  0 
 -1.900548e-02  -2.993932e-02  0 
 -2.071227e-02  -3.070434e-02  0 
 -2.072438e-02  -3.146219e-02  0 
 -2.004755e-02  -3.209292e-02  0 
 -1.939156e-02  -3.204431e-02  0 
 -3.846769e-02  -4.666520e-02  0 
 -4.876471e-02  -5.522938e-02  0 
 -9.430657e-03  -2.657053e-02  0 
 -1.671553e-02  -2.435519e-02  0 
 -1.629604e-02  -3.022493e-02  0 
 -2.831813e-02  -3.364808e-02  0 
 -2.890710e-02  -3.494839e-02  0 
 -1.971297e-02  -3.031029e-02  0 
 -1.898944e-02  -3.062389e-02  0 
 -2.006698e-02  -3.108266e-02  0 
 -1.961292e-02  -3.027148e-02  0 
 -1.968353e-02  -3.050341e-02  0 
 -1.930720e-02  -3.033705e-02  0 
 -1.975499e-02  -3.154987e-02  0 
 -1.908610e-02  -3.160619e-02  0 
 -1.933946e-02  -3.087340e-02  0 
 -2.025281e-02  -3.167397e-02  0 
 -2.177540e-02  -3.332089e-02  0 
 -2.034536e-02  -3.490161e-02  0 
 -2.889190e-02  -4.203005e-02  0 
 -2.249382e-02  -3.906264e-02  0 
 -2.044960e-02  -3.753992e-02  0 
 -2.615826e-02  -4.431488e-02  0 
 -2.203329e-02  -3.948261e-02  0 
 -2.411181e-02  -3.403321e-02  0 
VECTORS displacement_ITER8 FLOAT
 -2.401683e-02  -2.153106e-02  0 
 -2.513398e-02  -3.233301e-02  0 
 -2.180574e-02  -2.145275e-02  0 
 -1.933730e-02  -2.125952e-02  0 
 -1.670534e-02  -2.119138e-02  0 
 -2.506753e-02  -2.640825e-02  0 
 -2.508074e-02  -2.937658e-02  0 
 -2.219185e-02  -3.221792e-02  0 
 -1.932812e-02  -3.216778e-02  0 
 -3.368897e-02  -3.922006e-02  0 
 -3.410072e-02  -2.879138e-02  0 
 -9.989067e-03  -1.463062e-02  0 
 -1.438840e-02  -1.493168e-02  0 
 -1.868812e-02  -1.963207e-02  0 
 -3.603689e-02  -3.108222e-02  0 
 -3.608866e-02  -3.437637e-02  0 
 -2.239920e-02  -2.351113e-02  0 
 -1.636719e-02  -2.543604e-02  0 
 -2.253902e-02  -2.788356e-02  0 
 -2.069070e-02  -2.315038e-02  0 
 -2.104650e-02  -2.512654e-02  0 
 -1.853244e-02  -2.370214e-02  0 
 -2.097808e-02  -2.999122e-02  0 
 -1.784378e-02  -3.011705e-02  0 
 -1.901932e-02  -2.709924e-02  0 
 -2.316356e-02  -3.035521e-02  0 
 -2.419676e-02  -3.265664e-02  0 
 -2.470962e-02  -3.154792e-02  0 
 -3.011864e-02  -3.472386e-02  0 
 -2.713843e-02  -3.190430e-02  0 
 -2.845424e-02  -3.042005e-02  0 
 -3.003617e-02  -3.229717e-02  0 
 -3.129280e-02  -2.821202e-02  0 
 -2.602458e-02  -3.351326e-02  0 
VECTORS displacement_ITER9 FLOAT
 -1.500810e-02  -1.389613e-02  0 
 -1.620076e-02  -2.118544e-02  0 
 -1.369921e-02  -1.381366e-02  0 
 -1.212523e-02  -1.361219e-02  0 
 -1.038630e-02  -1.354704e-02  0 
 -1.612666e-02  -1.697225e-02  0 
 -1.614070e-02  -1.908755e-02  0 
 -1.410851e-02  -2.106751e-02  0 
 -1.210339e-02  -2.101810e-02  0 
 -2.038662e-02  -2.346035e-02  0 
 -1.528261e-02  -8.201136e-03  0 
 -4.659739e-03  -8.919563e-03  0 
 -8.912448e-03  -9.491438e-03  0 
 -1.094336e-02  -1.223880e-02  0 
 -2.780553e-02  -2.084086e-02  0 
 -2.729445e-02  -2.402260e-02  0 
 -1.407544e-02  -1.508849e-02  0 
 -1.016599e-02  -1.637016e-02  0 
 -1.432480e-02  -1.802434e-02  0 
 -1.301863e-02  -1.485382e-02  0 
 -1.326316e-02  -1.612775e-02  0 
 -1.160024e-02  -1.520821e-02  0 
 -1.325314e-02  -1.949318e-02  0 
 -1.108088e-02  -1.959856e-02  0 
 -1.190122e-02  -1.746800e-02  0 
 -1.478346e-02  -1.976481e-02  0 
 -1.586664e-02  -2.090347e-02  0 
 -1.535107e-02  -2.096290e-02  0 
 -2.034925e-02  -2.161982e-02  0 
 -1.703857e-02  -2.151597e-02  0 
 -1.691581e-02  -2.112929e-02  0 
 -1.910325e-02  -2.368115e-02  0 
 -1.820065e-02  -2.106485e-02  0 
 -1.705038e-02  -2.162740e-02  0 
VECTORS displacement_ITER10 FLOAT
 -1.265968e-02  -1.470228e-02  0 
 -1.397999e-02  -1.135327e-02  0 
 -1.404932e-02  -1.461223e-02  0 
 -1.516337e-02  -1.439866e-02  0 
 -1.611327e-02  -1.434123e-02  0 
 -1.389406e-02  -1.237695e-02  0 
 -1.390800e-02  -1.187702e-02  0 
 -1.449909e-02  -1.122757e-02  0 
 -1.511793e-02  -1.117827e-02  0 
 -2.134738e-02  -1.534394e-02  0 
 -1.986063e-02  -1.523061e-02  0 
 -9.440670e-03  -1.458245e-02  0 
 -1.558045e-02  -1.384235e-02  0 
 -1.157086e-02  -1.484951e-02  0 
 -2.402063e-02  -1.371492e-02  0 
 -2.304959e-02  -1.544545e-02  0 
 -1.377320e-02  -1.353426e-02  0 
 -1.626611e-02  -1.287294e-02  0 
 -1.431969e-02  -1.213236e-02  0 
 -1.466950e-02  -1.368363e-02  0 
 -1.457473e-02  -1.284616e-02  0 
 -1.548352e-02  -1.344684e-02  0 
 -1.473803e-02  -1.164958e-02  0 
 -1.550225e-02  -1.168044e-02  0 
 -1.523027e-02  -1.226568e-02  0 
 -1.426476e-02  -1.163838e-02  0 
 -1.556882e-02  -1.165680e-02  0 
 -1.260033e-02  -1.511077e-02  0 
 -1.914563e-02  -1.683548e-02  0 
 -1.334257e-02  -1.899442e-02  0 
 -9.429736e-03  -1.950253e-02  0 
 -1.518109e-02  -2.630730e-02  0 
 -8.467752e-03  -2.455531e-02  0 
 -1.664796e-02  -1.174599e-02  0 
VECTORS displacement_ITER11 FLOAT
 -5.585534e-03  -6.532283e-03  0 
 -6.957524e-03  -2.071526e-03  0 
 -7.267401e-03  -6.436555e-03  0 
 -8.668007e-03  -6.213825e-03  0 
 -9.898364e-03  -6.154720e-03  0 
 -6.865500e-03  -3.620761e-03  0 
 -6.880137e-03  -2.860036e-03  0 
 -7.732804e-03  -1.947860e-03  0 
 -8.613325e-03  -1.900977e-03  0 
 -1.414721e-02  -5.925849e-03  0 
 -1.565595e-02  -1.612033e-02  0 
 -3.938083e-03  -7.176004e-03  0 
 -9.791908e-03  -6.269930e-03  0 
 -5.121045e-03  -6.951534e-03  0 
 -1.674308e-02  -3.877804e-03  0 
 -1.527914e-02  -5.841228e-03  0 
 -6.922184e-03  -5.106207e-03  0 
 -1.008787e-02  -4.241242e-03  0 
 -7.513187e-03  -3.247009e-03  0 
 -8.028897e-03  -5.293799e-03  0 
 -7.899677e-03  -4.230595e-03  0 
 -9.076826e-03  -4.993437e-03  0 
 -8.081902e-03  -2.568663e-03  0 
 -9.138959e-03  -2.597097e-03  0 
 -8.762226e-03  -3.452722e-03  0 
 -7.408848e-03  -2.528006e-03  0 
 -8.438811e-03  -3.378552e-03  0 
 -6.540376e-03  -6.406402e-03  0 
 -1.062446e-02  -8.806586e-03  0 
 -7.216561e-03  -9.896074e-03  0 
 -4.773775e-03  -1.004256e-02  0 
 -8.842993e-03  -1.510107e-02  0 
 -4.619267e-03  -1.365606e-02  0 
 -9.421173e-03  -2.630195e-03  0 
VECTORS displacement_ITER12 FLOAT
 -4.440382e-03  -6.594547e-03  0 
 -5.824155e-03  -2.591264e-03  0 
 -6.005851e-03  -6.495244e-03  0 
 -7.291448e-03  -6.269341e-03  0 
 -8.408285e-03  -6.211137e-03  0 
 -5.727024e-03  -3.903836e-03  0 
 -5.742581e-03  -3.262115e-03  0 
 -6.473726e-03  -2.470832e-03  0 
 -7.235716e-03  -2.424637e-03  0 
 -1.097260e-02  -5.542414e-03  0 
 -1.215134e-02  -1.808652e-02  0 
 -4.098378e-03  -8.064830e-03  0 
 -8.974428e-03  -7.670251e-03  0 
 -4.227978e-03  -6.888388e-03  0 
 -1.565679e-02  -3.383766e-03  0 
 -1.378298e-02  -5.952261e-03  0 
 -5.689513e-03  -5.266523e-03  0 
 -8.571148e-03  -4.482001e-03  0 
 -6.273197e-03  -3.589067e-03  0 
 -6.713038e-03  -5.434016e-03  0 
 -6.600505e-03  -4.460587e-03  0 
 -7.663400e-03  -5.156083e-03  0 
 -6.773807e-03  -3.000192e-03  0 
 -7.698437e-03  -3.034137e-03  0 
 -7.372414e-03  -3.767629e-03  0 
 -6.193445e-03  -2.970232e-03  0 
 -6.833445e-03  -4.379356e-03  0 
 -5.272789e-03  -7.113595e-03  0 
 -8.009701e-03  -9.217884e-03  0 
 -5.804984e-03  -1.022120e-02  0 
 -3.916530e-03  -1.031531e-02  0 
 -7.039748e-03  -1.435262e-02  0 
 -3.874401e-03  -1.345536e-02  0 
 -7.652464e-03  -3.385907e-03  0 
VECTORS displacement_ITER13 FLOAT
 -3.531168e-03  -7.939618e-03  0 
 -4.857334e-03  -8.536035e-03  0 
 -3.923042e-03  -7.837186e-03  0 
 -4.038243e-03  -7.608005e-03  0 
 -3.976549e-03  -7.539145e-03  0 
 -4.755985e-03  -7.595045e-03  0 
 -4.775316e-03  -8.078143e-03  0 
 -4.369292e-03  -8.427160e-03  0 
 -3.997383e-03  -8.383365e-03  0 
 -3.115132e-03  -6.700323e-03  0 
 1.023577e-03  -7.354059e-03  0 
 -1.707269e-03  -6.791749e-03  0 
 -4.781108e-03  -7.717292e-03  0 
 -2.646009e-03  -7.182302e-03  0 
 -1.516484e-02  -7.318237e-03  0 
 -1.306870e-02  -1.107936e-02  0 
 -3.891770e-03  -7.633644e-03  0 
 -3.977962e-03  -7.688584e-03  0 
 -4.344790e-03  -7.834532e-03  0 
 -4.066030e-03  -7.629573e-03  0 
 -4.102661e-03  -7.575945e-03  0 
 -4.042900e-03  -7.605661e-03  0 
 -4.197410e-03  -8.093652e-03  0 
 -3.849564e-03  -8.161666e-03  0 
 -3.996142e-03  -7.718750e-03  0 
 -4.486833e-03  -8.180474e-03  0 
 -4.918025e-03  -9.670456e-03  0 
 -5.764740e-03  -9.639986e-03  0 
 -4.661243e-03  -9.190302e-03  0 
 -6.340837e-03  -9.317075e-03  0 
 -7.871245e-03  -9.178514e-03  0 
 -6.761757e-03  -8.442529e-03  0 
 -8.995623e-03  -8.300502e-03  0 
 -4.844257e-03  -8.985671e-03  0 
VECTORS displacement_ITER14 FLOAT
 -2.587880e-03  -6.867149e-03  0 
 -3.909126e-03  -5.226836e-03  0 
 -3.535764e-03  -6.762359e-03  0 
 -4.205905e-03  -6.530296e-03  0 
 -4.694429e-03  -6.457445e-03  0 
 -3.801232e-03  -5.413949e-03  0 
 -3.823484e-03  -5.331118e-03  0 
 -3.977608e-03  -5.120758e-03  0 
 -4.165047e-03  -5.078708e-03  0 
 -3.419879e-03  -4.627118e-03  0 
 -8.142261e-04  -7.007492e-03  0 
 -2.245194e-03  -5.808745e-03  0 
 -5.524887e-03  -6.646927e-03  0 
 -2.478582e-03  -6.274821e-03  0 
 -1.273777e-02  -4.777881e-03  0 
 -1.081786e-02  -7.813767e-03  0 
 -3.369823e-03  -6.073721e-03  0 
 -4.782891e-03  -5.723192e-03  0 
 -3.872760e-03  -5.369148e-03  0 
 -3.946715e-03  -6.149245e-03  0 
 -3.911902e-03  -5.660064e-03  0 
 -4.386573e-03  -6.003155e-03  0 
 -4.039705e-03  -5.214594e-03  0 
 -4.315517e-03  -5.266537e-03  0 
 -4.228021e-03  -5.400709e-03  0 
 -3.903059e-03  -5.237718e-03  0 
 -4.394273e-03  -6.075013e-03  0 
 -4.541103e-03  -6.643002e-03  0 
 -4.407368e-03  -6.654864e-03  0 
 -4.872035e-03  -7.078244e-03  0 
 -5.178525e-03  -7.101164e-03  0 
 -5.333509e-03  -7.814672e-03  0 
 -5.497597e-03  -7.559962e-03  0 
 -4.313686e-03  -5.667917e-03  0 
VECTORS displacement_ITER15 FLOAT
 7.469337e-04  -9.087395e-03  0 
 -5.651782e-04  -2.883156e-03  0 
 -1.338148e-03  -8.978431e-03  0 
 -3.141597e-03  -8.741023e-03  0 
 -4.753533e-03  -8.660403e-03  0 
 -4.447309e-04  -5.374127e-03  0 
 -4.731686e-04  -4.135393e-03  0 
 -1.771658e-03  -2.783068e-03  0 
 -3.100036e-03  -2.745360e-03  0 
 -3.682484e-03  -5.384625e-03  0 
 -5.826914e-03  -1.361155e-02  0 
 -1.639711e-03  -8.227615e-03  0 
 -5.530878e-03  -8.773578e-03  0 
 -6.208603e-04  -8.839327e-03  0 
 -6.013856e-03  -4.304748e-03  0 
 -4.632600e-03  -5.513078e-03  0 
 -8.968635e-04  -7.298199e-03  0 
 -5.020486e-03  -6.122342e-03  0 
 -1.502481e-03  -4.748168e-03  0 
 -2.296221e-03  -7.537424e-03  0 
 -2.115099e-03  -6.158931e-03  0 
 -3.681493e-03  -7.142840e-03  0 
 -2.311195e-03  -3.749246e-03  0 
 -3.858514e-03  -3.768725e-03  0 
 -3.294065e-03  -5.079278e-03  0 
 -1.304483e-03  -3.642689e-03  0 
 -2.050601e-03  -3.324533e-03  0 
 -1.512334e-03  -4.662408e-03  0 
 -2.641143e-03  -6.091182e-03  0 
 -1.526225e-03  -6.136926e-03  0 
 -4.494181e-04  -6.166108e-03  0 
 -2.307747e-03  -8.836494e-03  0 
 4.735187e-05  -7.830913e-03  0 
 -1.971819e-03  -3.289232e-03  0 
VECTORS displacement_ITER16 FLOAT
 1.683986e-04  -9.306046e-03  0 
 -1.085914e-03  -8.938753e-03  0 
 -4.392639e-04  -9.194386e-03  0 
 -7.642401e-04  -8.955646e-03  0 
 -8.912259e-04  -8.866528e-03  0 
 -9.575416e-04  -8.570653e-03  0 
 -9.931637e-04  -8.756693e-03  0 
 -8.508876e-04  -8.850414e-03  0 
 -7.352638e-04  -8.817261e-03  0 
 -1.821059e-03  -1.089544e-02  0 
 -2.828162e-03  -1.261101e-02  0 
 2.588164e-04  -6.140612e-03  0 
 -1.831993e-03  -7.760701e-03  0 
 6.906791e-05  -7.790015e-03  0 
 -5.171670e-03  -9.357450e-03  0 
 -4.406007e-03  -1.036752e-02  0 
 -3.574673e-04  -8.806129e-03  0 
 -9.503556e-04  -8.699238e-03  0 
 -8.030506e-04  -8.643309e-03  0 
 -6.841783e-04  -8.832107e-03  0 
 -6.908282e-04  -8.616275e-03  0 
 -8.387248e-04  -8.761222e-03  0 
 -7.901109e-04  -8.719589e-03  0 
 -7.188150e-04  -8.783756e-03  0 
 -7.571297e-04  -8.596373e-03  0 
 -8.870185e-04  -8.763721e-03  0 
 -1.280769e-03  -9.434498e-03  0 
 -2.286079e-03  -8.796924e-03  0 
 -1.973723e-03  -9.789194e-03  0 
 -2.708934e-03  -8.203732e-03  0 
 -4.189498e-03  -7.634388e-03  0 
 -3.587534e-03  -7.546410e-03  0 
 -5.120102e-03  -5.679634e-03  0 
 -1.186616e-03  -9.716671e-03  0 
VECTORS displacement_ITER17 FLOAT
 3.602030e-04  -8.553392e-03  0 
 -8.941815e-04  -5.286518e-03  0 
 -9.730645e-04  -8.437079e-03  0 
 -2.019085e-03  -8.193983e-03  0 
 -2.861008e-03  -8.100228e-03  0 
 -7.555522e-04  -6.382433e-03  0 
 -7.968189e-04  -5.832858e-03  0 
 -1.382300e-03  -5.200602e-03  0 
 -1.990253e-03  -5.169269e-03  0 
 -2.109962e-03  -8.037468e-03  0 
 -1.562817e-03  -4.736212e-03  0 
 -1.204069e-03  -6.329483e-03  0 
 -3.809879e-03  -7.403857e-03  0 
 -5.246511e-04  -7.450421e-03  0 
 -2.436299e-03  -7.623439e-03  0 
 -2.406464e-03  -7.016026e-03  0 
 -7.165232e-04  -7.416557e-03  0 
 -3.033420e-03  -6.784881e-03  0 
 -1.229225e-03  -6.083088e-03  0 
 -1.566495e-03  -7.547019e-03  0 
 -1.480222e-03  -6.765670e-03  0 
 -2.321961e-03  -7.318081e-03  0 
 -1.623999e-03  -5.622582e-03  0 
 -2.358976e-03  -5.664252e-03  0 
 -2.094552e-03  -6.224249e-03  0 
 -1.168565e-03  -5.585620e-03  0 
 -2.041562e-03  -5.461655e-03  0 
 -1.606208e-03  -6.320921e-03  0 
 -3.322074e-03  -6.723744e-03  0 
 -1.674398e-03  -7.199120e-03  0 
 -9.364393e-04  -7.474868e-03  0 
 -2.285216e-03  -9.707412e-03  0 
 -3.309345e-04  -8.765715e-03  0 
 -1.681191e-03  -6.242364e-03  0 
VECTORS displacement_ITER18 FLOAT
 3.732142e-04  -8.155556e-03  0 
 -8.728296e-04  -4.280366e-03  0 
 -1.110327e-03  -8.036003e-03  0 
 -2.303507e-03  -7.790022e-03  0 
 -3.288058e-03  -7.692256e-03  0 
 -7.272289e-04  -5.698212e-03  0 
 -7.728870e-04  -4.984631e-03  0 
 -1.514902e-03  -4.198197e-03  0 
 -2.276175e-03  -4.170053e-03  0 
 -2.596074e-03  -7.726043e-03  0 
 -3.151133e-03  -6.440677e-03  0 
 -1.589478e-03  -6.248572e-03  0 
 -4.290358e-03  -7.030520e-03  0 
 -6.681200e-04  -7.160197e-03  0 
 -6.890262e-04  -7.350483e-03  0 
 -1.126709e-03  -5.817869e-03  0 
 -8.184149e-04  -6.885407e-03  0 
 -3.487838e-03  -6.145845e-03  0 
 -1.341753e-03  -5.312216e-03  0 
 -1.775246e-03  -7.037447e-03  0 
 -1.669559e-03  -6.141290e-03  0 
 -2.653427e-03  -6.776295e-03  0 
 -1.821749e-03  -4.738661e-03  0 
 -2.725354e-03  -4.775959e-03  0 
 -2.397135e-03  -5.492282e-03  0 
 -1.249016e-03  -4.682282e-03  0 
 -2.106190e-03  -4.611918e-03  0 
 -1.483885e-03  -5.659759e-03  0 
 -3.392849e-03  -6.416950e-03  0 
 -1.549924e-03  -6.917627e-03  0 
 -4.489437e-04  -7.158005e-03  0 
 -2.167203e-03  -9.781970e-03  0 
 2.633299e-04  -8.976348e-03  0 
 -1.762633e-03  -5.392967e-03  0 
VECTORS displacement_ITER19 FLOAT
 -3.907578e-04  -7.109381e-03  0 
 -1.593063e-03  -7.500501e-03  0 
 -7.935021e-04  -6.987832e-03  0 
 -9.063270e-04  -6.740890e-03  0 
 -8.052033e-04  -6.635844e-03  0 
 -1.444381e-03  -6.824478e-03  0 
 -1.493971e-03  -7.154642e-03  0 
 -1.182234e-03  -7.426074e-03  0 
 -8.882089e-04  -7.402618e-03  0 
 -1.156973e-03  -9.557099e-03  0 
 -1.938917e-03  -9.353842e-03  0 
 -2.434499e-04  -3.890473e-03  0 
 -1.800143e-03  -5.131842e-03  0 
 -3.912436e-04  -5.439596e-03  0 
 -1.114458e-03  -9.220808e-03  0 
 -1.716308e-03  -8.072494e-03  0 
 -7.645449e-04  -6.781496e-03  0 
 -8.565546e-04  -6.821309e-03  0 
 -1.170841e-03  -6.952080e-03  0 
 -9.373103e-04  -6.777554e-03  0 
 -9.687748e-04  -6.730588e-03  0 
 -9.166568e-04  -6.752762e-03  0 
 -1.050720e-03  -7.164635e-03  0 
 -7.708610e-04  -7.234307e-03  0 
 -8.836951e-04  -6.855093e-03  0 
 -1.283933e-03  -7.218692e-03  0 
 -1.594388e-03  -8.177815e-03  0 
 -2.447600e-03  -7.510300e-03  0 
 -2.162104e-03  -8.171752e-03  0 
 -2.872333e-03  -7.052426e-03  0 
 -4.086813e-03  -6.581585e-03  0 
 -3.477817e-03  -6.429901e-03  0 
 -4.853636e-03  -5.258621e-03  0 
 -1.337248e-03  -8.658696e-03  0 
VECTORS displacement_ITER20 FLOAT
 -7.124835e-04  -6.821426e-03  0 
 -1.912832e-03  -4.466088e-03  0 
 -1.799613e-03  -6.697586e-03  0 
 -2.597172e-03  -6.448328e-03  0 
 -3.175801e-03  -6.338796e-03  0 
 -1.761020e-03  -5.162855e-03  0 
 -1.811933e-03  -4.805164e-03  0 
 -2.186311e-03  -4.391023e-03  0 
 -2.577543e-03  -4.369072e-03  0 
 -1.641893e-03  -6.075841e-03  0 
 -1.540981e-03  -6.001460e-03  0 
 -1.965784e-03  -4.623193e-03  0 
 -4.011177e-03  -5.199663e-03  0 
 -1.423579e-03  -5.727066e-03  0 
 -8.947966e-04  -6.683559e-03  0 
 -1.449422e-03  -5.290218e-03  0 
 -1.604776e-03  -5.892735e-03  0 
 -3.337359e-03  -5.431694e-03  0 
 -2.074218e-03  -4.947743e-03  0 
 -2.273844e-03  -5.987300e-03  0 
 -2.217053e-03  -5.402151e-03  0 
 -2.824918e-03  -5.812084e-03  0 
 -2.341049e-03  -4.652256e-03  0 
 -2.826226e-03  -4.701062e-03  0 
 -2.652852e-03  -5.030249e-03  0 
 -2.050881e-03  -4.630871e-03  0 
 -2.464800e-03  -4.951607e-03  0 
 -1.926661e-03  -5.755149e-03  0 
 -2.922645e-03  -5.841353e-03  0 
 -1.926763e-03  -6.605282e-03  0 
 -1.095800e-03  -6.892741e-03  0 
 -2.178763e-03  -8.557334e-03  0 
 -4.765972e-04  -8.393943e-03  0 
 -2.162231e-03  -5.401798e-03  0 
VECTORS displacement_ITER21 FLOAT
 -1.059694e-03  -6.070952e-03  0 
 -2.242675e-03  -4.848868e-03  0 
 -1.856324e-03  -5.945316e-03  0 
 -2.364572e-03  -5.694426e-03  0 
 -2.648902e-03  -5.579246e-03  0 
 -2.089680e-03  -4.988887e-03  0 
 -2.141782e-03  -4.908026e-03  0 
 -2.236680e-03  -4.774873e-03  0 
 -2.348890e-03  -4.754055e-03  0 
 -1.820644e-03  -6.094907e-03  0 
 -2.369491e-03  -8.777148e-03  0 
 -1.713489e-03  -3.921638e-03  0 
 -3.316053e-03  -4.368152e-03  0 
 -1.482484e-03  -4.995950e-03  0 
 -1.598046e-03  -6.008033e-03  0 
 -1.918153e-03  -5.221073e-03  0 
 -1.732329e-03  -5.393552e-03  0 
 -2.777454e-03  -5.137954e-03  0 
 -2.167684e-03  -4.910380e-03  0 
 -2.191262e-03  -5.445718e-03  0 
 -2.170998e-03  -5.087376e-03  0 
 -2.502331e-03  -5.333307e-03  0 
 -2.275340e-03  -4.823684e-03  0 
 -2.447795e-03  -4.880739e-03  0 
 -2.390699e-03  -4.920577e-03  0 
 -2.198606e-03  -4.831339e-03  0 
 -2.375402e-03  -5.637302e-03  0 
 -2.280863e-03  -6.012404e-03  0 
 -2.484642e-03  -6.396266e-03  0 
 -2.411449e-03  -6.569656e-03  0 
 -2.276525e-03  -6.563000e-03  0 
 -2.675414e-03  -7.426444e-03  0 
 -2.243452e-03  -7.171146e-03  0 
 -2.229933e-03  -5.753566e-03  0 
VECTORS displacement_ITER22 FLOAT
 -1.699226e-03  -5.449897e-03  0 
 -2.841442e-03  -6.095456e-03  0 
 -2.013791e-03  -5.322935e-03  0 
 -2.043238e-03  -5.071626e-03  0 
 -1.842022e-03  -4.947790e-03  0 
 -2.687865e-03  -5.324815e-03  0 
 -2.741788e-03  -5.696679e-03  0 
 -2.379238e-03  -6.023051e-03  0 
 -2.035262e-03  -6.003124e-03  0 
 -1.211466e-03  -5.931908e-03  0 
 -6.397871e-04  -7.133287e-03  0 
 -1.265455e-03  -3.055627e-03  0 
 -2.228510e-03  -3.390826e-03  0 
 -1.640087e-03  -4.320977e-03  0 
 -3.086419e-03  -5.956917e-03  0 
 -3.079796e-03  -5.988152e-03  0 
 -2.006782e-03  -5.190677e-03  0 
 -1.916206e-03  -5.274862e-03  0 
 -2.381178e-03  -5.469455e-03  0 
 -2.117328e-03  -5.173410e-03  0 
 -2.156856e-03  -5.190555e-03  0 
 -2.032306e-03  -5.165282e-03  0 
 -2.227792e-03  -5.724738e-03  0 
 -1.888955e-03  -5.794578e-03  0 
 -2.021187e-03  -5.361532e-03  0 
 -2.500398e-03  -5.779996e-03  0 
 -2.441214e-03  -6.703946e-03  0 
 -2.755744e-03  -6.408249e-03  0 
 -2.269749e-03  -6.503070e-03  0 
 -2.966937e-03  -6.389068e-03  0 
 -3.328993e-03  -6.239414e-03  0 
 -3.112788e-03  -6.286869e-03  0 
 -3.528998e-03  -6.208112e-03  0 
 -2.372830e-03  -6.715791e-03  0 
VECTORS displacement_ITER23 FLOAT
 -1.461852e-03  -5.194018e-03  0 
 -2.583031e-03  -4.683996e-03  0 
 -2.056680e-03  -5.064927e-03  0 
 -2.368095e-03  -4.812528e-03  0 
 -2.442318e-03  -4.681810e-03  0 
 -2.426879e-03  -4.499324e-03  0 
 -2.482610e-03  -4.575699e-03  0 
 -2.413036e-03  -4.609640e-03  0 
 -2.362770e-03  -4.588961e-03  0 
 -2.435609e-03  -5.121353e-03  0 
 -2.627604e-03  -7.906300e-03  0 
 -1.397301e-03  -3.682192e-03  0 
 -2.482883e-03  -3.356146e-03  0 
 -1.641033e-03  -4.601707e-03  0 
 -3.109561e-03  -4.493070e-03  0 
 -2.890798e-03  -4.612334e-03  0 
 -1.981852e-03  -4.686384e-03  0 
 -2.572902e-03  -4.559818e-03  0 
 -2.372821e-03  -4.495684e-03  0 
 -2.295860e-03  -4.709882e-03  0 
 -2.297865e-03  -4.504624e-03  0 
 -2.448275e-03  -4.639733e-03  0 
 -2.383634e-03  -4.535008e-03  0 
 -2.373182e-03  -4.594594e-03  0 
 -2.381283e-03  -4.466423e-03  0 
 -2.432880e-03  -4.557719e-03  0 
 -2.358594e-03  -5.043715e-03  0 
 -2.179945e-03  -5.151444e-03  0 
 -2.458387e-03  -5.794293e-03  0 
 -2.278010e-03  -5.748652e-03  0 
 -1.803471e-03  -5.628100e-03  0 
 -2.521606e-03  -6.731048e-03  0 
 -1.582085e-03  -6.444976e-03  0 
 -2.503944e-03  -5.055907e-03  0 
VECTORS displacement_ITER24 FLOAT
 -1.904987e-03  -4.859840e-03  0 
 -2.987350e-03  -5.527747e-03  0 
 -2.191424e-03  -4.729807e-03  0 
 -2.197545e-03  -4.478626e-03  0 
 -1.962544e-03  -4.341980e-03  0 
 -2.829364e-03  -4.777796e-03  0 
 -2.887651e-03  -5.133999e-03  0 
 -2.533495e-03  -5.454380e-03  0 
 -2.198568e-03  -5.433325e-03  0 
 -2.350263e-03  -5.562559e-03  0 
 -1.362390e-03  -5.356195e-03  0 
 -1.095357e-03  -3.223333e-03  0 
 -1.789301e-03  -2.808508e-03  0 
 -1.760950e-03  -4.281646e-03  0 
 -3.925385e-03  -4.876673e-03  0 
 -3.674560e-03  -5.288782e-03  0 
 -2.191340e-03  -4.618952e-03  0 
 -2.060844e-03  -4.707588e-03  0 
 -2.537960e-03  -4.910255e-03  0 
 -2.282338e-03  -4.598753e-03  0 
 -2.321687e-03  -4.632740e-03  0 
 -2.183395e-03  -4.595255e-03  0 
 -2.385143e-03  -5.163082e-03  0 
 -2.055419e-03  -5.229002e-03  0 
 -2.180979e-03  -4.807240e-03  0 
 -2.652631e-03  -5.215558e-03  0 
 -2.556460e-03  -5.817705e-03  0 
 -2.612073e-03  -5.654023e-03  0 
 -2.690641e-03  -5.981537e-03  0 