# vtk DataFile Version 3.1
this is an vtk file created by FEMAC
ASCII
DATASET UNSTRUCTURED_GRID
POINTS 31 FLOAT
2.000000 2.000000 0.000000
2.000000 2.250000 0.000000
2.000000 2.500000 0.000000
2.250000 2.000000 0.000000
2.500000 2.000000 0.000000
2.750000 2.000000 0.000000
2.750000 3.000000 0.000000
3.000000 2.250000 0.000000
3.000000 2.500000 0.000000
1.745000 2.195000 0.000000
2.178356 1.674167 0.000000
2.341416 1.828194 0.000000
2.581646 1.808128 0.000000
2.401594 1.630720 0.000000
2.661856 1.507893 0.000000
2.832250 1.761003 0.000000
2.153954 1.850472 0.000000
2.528684 2.556014 0.000000
2.805000 2.745000 0.000000
2.667801 2.187778 0.000000
2.332917 2.187083 0.000000
2.500000 2.225000 0.000000
2.803850 2.340769 0.000000
2.566179 2.758843 0.000000
2.197089 2.339859 0.000000
2.413333 2.387500 0.000000
2.325606 2.588338 0.000000
2.590972 2.391667 0.000000
2.715781 2.548715 0.000000
2.844330 2.155709 0.000000
2.156001 2.155388 0.000000
CELLS 43 172 
3 0 1 9
3 3 11  4
3 12  5  4
3 13 11 10
3 16  3  0
3 12 15  5
3 16 11  3
3 10 11 16
3 4 11 12
3 12 11 13
3 13 14 12
3 12 14 15
3 19  4  5
3 4 20  3
3 19 21  4
3 21 20  4
3 25 20 21
3 19 27 21
3 1 24  2
3 22  7  8
3 22 27 19
3 23 28 18
3 25 24 20
3 25 27 17
3 25 21 27
3 23 18  6
3 2 24 26
3 25 17 26
3 26 24 25
3 28  8 18
3 22  8 28
3 17 27 28
3 22 28 27
3 5 29 19
3 30  1  0
3 30  3 20
3 3 30  0
3 22 29  7
3 22 19 29
3 30 24  1
3 20 24 30
3 26 17 23
3 17 28 23
CELL_TYPES 43
5 5 5 5 5 5 5 5 5 5 5 5 5 5 5 5 5 5 5 5 5 5 5 5 5 5 5 5 5 5 5 5 5 5 5 5 5 5 5 5 5 5 5 
POINT_DATA 31
VECTORS displacement_ITER1 FLOAT
 -4.600725e-02  -5.024557e-02  0 
 -3.153901e-02  -5.023255e-02  0 
 -1.707856e-02  -5.023498e-02  0 
 -4.601125e-02  -6.471951e-02  0 
 -4.602403e-02  -7.920802e-02  0 
 -4.603775e-02  -9.370687e-02  0 
 1.180031e-02  -9.366522e-02  0 
 -3.156740e-02  -1.081902e-01  0 
 -1.708881e-02  -1.081764e-01  0 
 -2.992343e-02  -7.557521e-03  0 
 -3.962811e-02  -6.729162e-02  0 
 -4.310280e-02  -7.094048e-02  0 
 -4.705383e-02  -8.547687e-02  0 
 -4.590205e-02  -7.867550e-02  0 
 -5.106194e-02  -9.321120e-02  0 
 -5.114297e-02  -1.046215e-01  0 
 -3.748927e-02  -5.890793e-02  0 
 -1.383914e-02  -8.086373e-02  0 
 -2.911422e-03  -9.685350e-02  0 
 -3.515783e-02  -8.893027e-02  0 
 -3.518903e-02  -6.952005e-02  0 
 -3.299800e-02  -7.920266e-02  0 
 -2.630304e-02  -9.681235e-02  0 
 -2.107523e-03  -8.304075e-02  0 
 -2.634427e-02  -6.164956e-02  0 
 -2.359020e-02  -7.417864e-02  0 
 -1.196726e-02  -6.909531e-02  0 
 -2.335065e-02  -8.447155e-02  0 
 -1.426075e-02  -9.169998e-02  0 
 -3.702293e-02  -9.916937e-02  0 
 -3.701981e-02  -5.927412e-02  0 
VECTORS displacement_ITER2 FLOAT
 -8.602620e-03  -5.718138e-02  0 
 1.563267e-03  -5.716816e-02  0 
 1.172295e-02  -5.717235e-02  0 
 -8.616509e-03  -6.736405e-02  0 
 -8.633060e-03  -7.756284e-02  0 
 -8.647273e-03  -8.777560e-02  0 
 3.203478e-02  -8.774735e-02  0 
 1.534361e-03  -9.796561e-02  0 
 1.172114e-02  -9.795644e-02  0 
 5.669221e-03  -2.144674e-02  0 
 -1.701154e-03  -6.934471e-02  0 
 -4.956234e-03  -7.182390e-02  0 
 -9.516689e-03  -8.395720e-02  0 
 -8.505052e-03  -7.926779e-02  0 
 -1.822429e-02  -9.767974e-02  0 
 -1.726992e-02  -1.049736e-01  0 
 4.123570e-04  -6.249082e-02  0 
 1.400357e-02  -7.872547e-02  0 
 2.169107e-02  -8.998413e-02  0 
 -9.882657e-04  -8.440673e-02  0 
 -1.006989e-03  -7.073914e-02  0 
 5.321991e-04  -7.755634e-02  0 
 5.238636e-03  -8.995455e-02  0 
 2.225312e-02  -8.026157e-02  0 
 5.212730e-03  -6.519943e-02  0 
 7.147824e-03  -7.401795e-02  0 
 1.531772e-02  -7.043964e-02  0 
 7.315989e-03  -8.126480e-02  0 
 1.370892e-02  -8.635446e-02  0 
 -2.301671e-03  -9.161819e-02  0 
 -2.291196e-03  -6.352860e-02  0 
VECTORS displacement_ITER3 FLOAT
 -1.635533e-02  -3.755500e-02  0 
 -9.857217e-03  -3.755635e-02  0 
 -3.366043e-03  -3.756414e-02  0 
 -1.637974e-02  -4.409298e-02  0 
 -1.639809e-02  -5.063756e-02  0 
 -1.640630e-02  -5.719019e-02  0 
 9.640866e-03  -5.718035e-02  0 
 -9.883259e-03  -6.371865e-02  0 
 -3.371561e-03  -6.372423e-02  0 
 -3.085825e-03  -6.595907e-03  0 
 -1.393051e-02  -4.131004e-02  0 
 -1.415395e-02  -4.575094e-02  0 
 -1.900387e-02  -5.580027e-02  0 
 -2.034591e-02  -5.140356e-02  0 
 -3.416264e-02  -7.221308e-02  0 
 -2.955460e-02  -7.681429e-02  0 
 -9.597433e-03  -3.786300e-02  0 
 -1.908091e-03  -5.138026e-02  0 
 3.010229e-03  -5.861057e-02  0 
 -1.149889e-02  -5.502990e-02  0 
 -1.150670e-02  -4.625542e-02  0 
 -1.052424e-02  -5.063181e-02  0 
 -7.517445e-03  -5.858871e-02  0 
 3.369923e-03  -5.236631e-02  0 
 -7.525925e-03  -4.270183e-02  0 
 -6.291332e-03  -4.835937e-02  0 
 -1.066643e-03  -4.606217e-02  0 
 -6.186078e-03  -5.301112e-02  0 
 -2.098125e-03  -5.627772e-02  0 
 -1.233655e-02  -5.965509e-02  0 
 -1.232331e-02  -4.162795e-02  0 
VECTORS displacement_ITER4 FLOAT
 -2.363937e-02  -4.249417e-02  0 
 -1.909626e-02  -4.250986e-02  0 
 -1.455708e-02  -4.251817e-02  0 
 -2.366990e-02  -4.709562e-02  0 
 -2.368964e-02  -5.169363e-02  0 
 -2.369532e-02  -5.629658e-02  0 
 -5.449318e-03  -5.628927e-02  0 
 -1.912093e-02  -6.087427e-02  0 
 -1.456644e-02  -6.088542e-02  0 
 -1.175488e-02  -1.430991e-02  0 
 -2.302711e-02  -4.262134e-02  0 
 -2.226585e-02  -4.735321e-02  0 
 -2.713667e-02  -5.574679e-02  0 
 -2.908339e-02  -5.194789e-02  0 
 -4.392207e-02  -7.193143e-02  0 
 -3.843744e-02  -7.529699e-02  0 
 -1.815092e-02  -4.053551e-02  0 
 -1.353769e-02  -5.221277e-02  0 
 -1.009723e-02  -5.729328e-02  0 
 -2.025261e-02  -5.477975e-02  0 
 -2.025387e-02  -4.861171e-02  0 
 -1.956813e-02  -5.168806e-02  0 
 -1.746695e-02  -5.727856e-02  0 
 -9.843651e-03  -5.290506e-02  0 
 -1.746627e-02  -4.611704e-02  0 
 -1.660416e-02  -5.009062e-02  0 
 -1.294726e-02  -4.847677e-02  0 
 -1.653243e-02  -5.335930e-02  0 
 -1.367251e-02  -5.565391e-02  0 
 -2.083772e-02  -5.802749e-02  0 
 -2.082092e-02  -4.535962e-02  0 
VECTORS displacement_ITER5 FLOAT
 -1.993545e-02  -2.840590e-02  0 
 -1.746418e-02  -2.844003e-02  0 
 -1.497967e-02  -2.844438e-02  0 
 -1.998262e-02  -3.097042e-02  0 
 -2.000972e-02  -3.352041e-02  0 
 -2.001726e-02  -3.608067e-02  0 
 -9.956118e-03  -3.608316e-02  0 
 -1.748706e-02  -3.861267e-02  0 
 -1.497832e-02  -3.862553e-02  0 
 -1.020434e-02  -9.658201e-03  0 
 -2.012605e-02  -2.692163e-02  0 
 -1.954262e-02  -3.020236e-02  0 
 -2.424433e-02  -3.611502e-02  0 
 -2.581302e-02  -3.382134e-02  0 
 -4.044895e-02  -5.034307e-02  0 
 -3.553181e-02  -5.287473e-02  0 
 -1.587703e-02  -2.529732e-02  0 
 -1.441379e-02  -3.380691e-02  0 
 -1.251962e-02  -3.663363e-02  0 
 -1.810857e-02  -3.523421e-02  0 
 -1.810130e-02  -3.180204e-02  0 
 -1.772812e-02  -3.351334e-02  0 
 -1.657637e-02  -3.662103e-02  0 
 -1.238136e-02  -3.419568e-02  0 
 -1.657162e-02  -3.042304e-02  0 
 -1.609867e-02  -3.262572e-02  0 
 -1.409102e-02  -3.173236e-02  0 
 -1.606002e-02  -3.444204e-02  0 
 -1.448701e-02  -3.571920e-02  0 
 -1.843134e-02  -3.704063e-02  0 
 -1.840339e-02  -2.999708e-02  0 
VECTORS displacement_ITER6 FLOAT
 -1.014940e-02  -1.878882e-02  0 
 -7.488771e-03  -1.883001e-02  0 
 -4.794357e-03  -1.882845e-02  0 
 -1.021533e-02  -2.157211e-02  0 
 -1.025078e-02  -2.433737e-02  0 
 -1.025845e-02  -2.711558e-02  0 
 6.951172e-04  -2.714149e-02  0 
 -7.509733e-03  -2.987187e-02  0 
 -4.784258e-03  -2.989191e-02  0 
 -9.885390e-05  -7.141841e-03  0 
 -1.170123e-02  -1.718738e-02  0 
 -1.081751e-02  -2.055252e-02  0 
 -1.490711e-02  -2.540120e-02  0 
 -1.642792e-02  -2.298980e-02  0 
 -2.817506e-02  -3.443522e-02  0 
 -2.390312e-02  -3.804704e-02  0 
 -7.550437e-03  -1.607212e-02  0 
 -4.174538e-03  -2.465108e-02  0 
 -2.108667e-03  -2.773521e-02  0 
 -8.187089e-03  -2.619904e-02  0 
 -8.177205e-03  -2.246934e-02  0 
 -7.773505e-03  -2.432902e-02  0 
 -6.522316e-03  -2.770905e-02  0 
 -1.960095e-03  -2.507669e-02  0 
 -6.520675e-03  -2.097409e-02  0 
 -6.005997e-03  -2.336526e-02  0 
 -3.826394e-03  -2.239559e-02  0 
 -5.963084e-03  -2.534008e-02  0 
 -4.252830e-03  -2.673287e-02  0 
 -8.536509e-03  -2.816205e-02  0 
 -8.501067e-03  -2.051012e-02  0 
VECTORS displacement_ITER7 FLOAT
 1.143205e-03  -1.100179e-02  0 
 3.070010e-03  -1.104593e-02  0 
 5.057556e-03  -1.103770e-02  0 
 1.054977e-03  -1.308043e-02  0 
 1.008485e-03  -1.514320e-02  0 
 9.944984e-04  -1.722921e-02  0 
 9.166943e-03  -1.726305e-02  0 
 3.046124e-03  -1.928824e-02  0 
 5.079939e-03  -1.930496e-02  0 
 1.077634e-02  -9.729543e-03  0 
 -2.023947e-03  -8.230652e-03  0 
 -4.262338e-04  -1.158277e-02  0 
 -4.224808e-03  -1.552450e-02  0 
 -6.345666e-03  -1.308090e-02  0 
 -1.783543e-02  -2.281378e-02  0 
 -1.294489e-02  -2.747755e-02  0 
 2.454023e-03  -8.246175e-03  0 
 5.527318e-03  -1.537673e-02  0 
 7.070438e-03  -1.769764e-02  0 
 2.545958e-03  -1.653535e-02  0 
 2.562372e-03  -1.373711e-02  0 
 2.857270e-03  -1.513157e-02  0 
 3.783682e-03  -1.766678e-02  0 
 7.177389e-03  -1.570210e-02  0 
 3.784514e-03  -1.262586e-02  0 
 4.167159e-03  -1.441005e-02  0 
 5.781369e-03  -1.368777e-02  0 
 4.199705e-03  -1.588986e-02  0 
 5.471980e-03  -1.693845e-02  0 
 2.282653e-03  -1.801124e-02  0 
 2.333043e-03  -1.227459e-02  0 
VECTORS displacement_ITER8 FLOAT
 -5.251566e-03  -6.704938e-03  0 
 -4.246764e-03  -6.757037e-03  0 
 -3.167025e-03  -6.747476e-03  0 
 -5.348812e-03  -7.878546e-03  0 
 -5.399735e-03  -9.034300e-03  0 
 -5.419310e-03  -1.021959e-02  0 
 -8.760716e-04  -1.024840e-02  0 
 -4.270820e-03  -1.137121e-02  0 
 -3.136686e-03  -1.138005e-02  0 
 2.754851e-03  -1.220464e-02  0 
 -9.585418e-03  -2.221691e-03  0 
 -7.326131e-03  -5.837798e-03  0 
 -1.089429e-02  -9.397145e-03  0 
 -1.369239e-02  -6.832675e-03  0 
 -2.596162e-02  -1.729739e-02  0 
 -2.019053e-02  -2.237313e-02  0 
 -4.992160e-03  -3.137726e-03  0 
 -2.896548e-03  -9.164694e-03  0 
 -2.039741e-03  -1.048129e-02  0 
 -4.542523e-03  -9.816960e-03  0 
 -4.521458e-03  -8.231546e-03  0 
 -4.365005e-03  -9.020819e-03  0 
 -3.857734e-03  -1.045464e-02  0 
 -1.984149e-03  -9.356352e-03  0 
 -3.857167e-03  -7.616669e-03  0 
 -3.645596e-03  -8.614802e-03  0 
 -2.761592e-03  -8.213761e-03  0 
 -3.626877e-03  -9.449701e-03  0 
 -2.923588e-03  -1.004650e-02  0 
 -4.693319e-03  -1.065720e-02  0 
 -4.633968e-03  -7.410812e-03  0 
VECTORS displacement_ITER9 FLOAT
 -3.485548e-03  -2.364102e-03  0 
 -2.387456e-03  -2.421995e-03  0 
 -1.197338e-03  -2.411829e-03  0 
 -3.593243e-03  -3.651515e-03  0 
 -3.648941e-03  -4.917197e-03  0 
 -3.672574e-03  -6.213801e-03  0 
 1.322162e-03  -6.246794e-03  0 
 -2.410952e-03  -7.480481e-03  0 
 -1.163292e-03  -7.485471e-03  0 
 2.653518e-03  -1.081411e-02  0 
 -5.717950e-03  5.609272e-04  0 
 -4.808226e-03  -2.047508e-03  0 
 -7.544656e-03  -4.760323e-03  0 
 -8.875047e-03  -2.651864e-03  0 
 -1.717215e-02  -9.054955e-03  0 
 -1.415807e-02  -1.428616e-02  0 
 -2.948705e-03  2.662335e-05  0 
 -8.992446e-04  -5.060275e-03  0 
 4.215628e-05  -6.501796e-03  0 
 -2.709811e-03  -5.772668e-03  0 
 -2.685837e-03  -4.037464e-03  0 
 -2.514206e-03  -4.901629e-03  0 
 -1.955476e-03  -6.472492e-03  0 
 1.036019e-04  -5.269746e-03  0 
 -1.956930e-03  -3.364792e-03  0 
 -1.723340e-03  -4.457815e-03  0 
 -7.507707e-04  -4.019892e-03  0 
 -1.702328e-03  -5.371771e-03  0 
 -9.290571e-04  -6.025813e-03  0 
 -2.876983e-03  -6.694251e-03  0 
 -2.809788e-03  -3.137401e-03  0 
VECTORS displacement_ITER10 FLOAT
 -5.163556e-03  -1.058657e-03  0 
 -3.495361e-03  -1.113999e-03  0 
 -1.719858e-03  -1.103967e-03  0 
 -5.284783e-03  -2.933053e-03  0 
 -5.347602e-03  -4.787037e-03  0 
 -5.377069e-03  -6.675414e-03  0 
 1.994362e-03  -6.714085e-03  0 
 -3.523810e-03  -8.535399e-03  0 
 -1.682229e-03  -8.536853e-03  0 
 6.851287e-04  -1.179955e-02  0 
 -6.048700e-03  -2.212487e-04  0 
 -6.002291e-03  -2.098612e-03  0 
 -8.269628e-03  -4.796652e-03  0 
 -8.841791e-03  -2.836938e-03  0 
 -1.494578e-02  -7.519760e-03  0 
 -1.328422e-02  -1.297191e-02  0 
 -4.316972e-03  -4.071552e-04  0 
 -1.286821e-03  -4.994328e-03  0 
 1.046418e-04  -7.093746e-03  0 
 -3.967897e-03  -6.036078e-03  0 
 -3.940744e-03  -3.508832e-03  0 
 -3.682170e-03  -4.767838e-03  0 
 -2.851357e-03  -7.058582e-03  0 
 1.965376e-04  -5.293668e-03  0 
 -2.853795e-03  -2.516839e-03  0 
 -2.508243e-03  -4.118602e-03  0 
 -1.063560e-03  -3.474734e-03  0 
 -2.477628e-03  -5.452657e-03  0 
 -1.333222e-03  -6.403345e-03  0 
 -4.213768e-03  -7.378240e-03  0 
 -4.135815e-03  -2.191722e-03  0 
VECTORS displacement_ITER11 FLOAT
 -4.503747e-03  1.475560e-04  0 
 -3.926131e-03  9.071462e-05  0 
 -3.234022e-03  9.814695e-05  0 
 -4.631523e-03  -6.470263e-04  0 
 -4.697249e-03  -1.419534e-03  0 
 -4.731055e-03  -2.227790e-03  0 
 -1.689722e-03  -2.261361e-03  0 
 -3.956737e-03  -3.005555e-03  0 
 -3.195956e-03  -3.001230e-03  0 
 -4.752025e-04  -1.171138e-02  0 
 -4.318592e-03  1.397046e-03  0 
 -4.656893e-03  2.445520e-04  0 
 -6.639913e-03  -1.746587e-03  0 
 -6.947898e-03  -4.745227e-04  0 
 -1.309870e-02  -5.551252e-03  0 
 -1.160837e-02  -9.922278e-03  0 
 -3.332813e-03  8.584000e-04  0 
 -3.042792e-03  -1.500682e-03  0 
 -2.471792e-03  -2.401667e-03  0 
 -4.130572e-03  -1.940357e-03  0 
 -4.097871e-03  -8.618522e-04  0 
 -4.004560e-03  -1.398111e-03  0 
 -3.675059e-03  -2.373991e-03  0 
 -2.439824e-03  -1.637871e-03  0 
 -3.673031e-03  -4.584970e-04  0 
 -3.533823e-03  -1.123956e-03  0 
 -2.959622e-03  -8.612517e-04  0 
 -3.521368e-03  -1.688891e-03  0 
 -3.057527e-03  -2.098989e-03  0 
 -4.239976e-03  -2.520699e-03  0 
 -4.154343e-03  -3.092157e-04  0 
VECTORS displacement_ITER12 FLOAT
 -2.804980e-03  1.502654e-03  0 
 -2.252456e-03  1.439297e-03  0 
 -1.582208e-03  1.443050e-03  0 
 -2.934860e-03  7.238305e-04  0 
 -3.001358e-03  -2.709693e-05  0 
 -3.037750e-03  -8.118634e-04  0 
 -9.639723e-05  -8.372710e-04  0 
 -2.285110e-03  -1.566331e-03  0 
 -1.549172e-03  -1.556257e-03  0 
 -3.142438e-04  -8.550913e-03  0 
 -2.193915e-03  2.920656e-03  0 
 -2.679746e-03  1.594502e-03  0 
 -4.087230e-03  -7.377261e-05  0 
 -4.085783e-03  1.302907e-03  0 
 -8.105564e-03  -1.906956e-03  0 
 -7.517329e-03  -6.490332e-03  0 
 -1.830159e-03  2.116879e-03  0 
 -1.397559e-03  -1.040603e-04  0 
 -8.488947e-04  -9.741966e-04  0 
 -2.452272e-03  -5.308097e-04  0 
 -2.417219e-03  5.166726e-04  0 
 -2.328317e-03  -4.383672e-06  0 
 -2.010378e-03  -9.513993e-04  0 
 -8.165338e-04  -2.363531e-04  0 
 -2.006307e-03  9.069217e-04  0 
 -1.871825e-03  2.613543e-04  0 
 -1.316015e-03  5.145065e-04  0 
 -1.860459e-03  -2.863208e-04  0 
 -1.412926e-03  -6.831031e-04  0 
 -2.560436e-03  -1.095492e-03  0 
 -2.470114e-03  1.055258e-03  0 
VECTORS displacement_ITER13 FLOAT
 -2.277237e-03  -1.460336e-03  0 
 -2.394089e-03  -1.529277e-03  0 
 -2.391214e-03  -1.529834e-03  0 
 -2.410094e-03  -1.579845e-03  0 
 -2.478317e-03  -1.666456e-03  0 
 -2.519787e-03  -1.787640e-03  0 
 -2.254031e-03  -1.803602e-03  0 
 -2.429226e-03  -1.875302e-03  0 
 -2.358299e-03  -1.856406e-03  0 
 -1.834871e-03  -9.052390e-03  0 
 -4.152386e-04  -1.223277e-04  0 
 -1.376829e-03  -8.943347e-04  0 
 -2.631150e-03  -2.497903e-03  0 
 -2.346985e-03  -1.627791e-03  0 
 -6.816358e-03  -6.621622e-03  0 
 -6.430239e-03  -9.861966e-03  0 
 -8.109744e-04  -8.229143e-04  0 
 -2.355554e-03  -1.665528e-03  0 
 -2.315150e-03  -1.793688e-03  0 
 -2.429362e-03  -1.720887e-03  0 
 -2.390089e-03  -1.565294e-03  0 
 -2.403174e-03  -1.641542e-03  0 
 -2.393502e-03  -1.778567e-03  0 
 -2.319393e-03  -1.698452e-03  0 
 -2.386665e-03  -1.537572e-03  0 
 -2.379293e-03  -1.607040e-03  0 
 -2.360198e-03  -1.589709e-03  0 
 -2.379035e-03  -1.680741e-03  0 
 -2.351298e-03  -1.743817e-03  0 
 -2.454914e-03  -1.817875e-03  0 
 -2.357644e-03  -1.496143e-03  0 
VECTORS displacement_ITER14 FLOAT
 -1.259702e-03  1.237492e-03  0 
 -1.210608e-03  1.164870e-03  0 
 -1.041652e-03  1.162545e-03  0 
 -1.393111e-03  9.479763e-04  0 
 -1.461660e-03  6.940493e-04  0 
 -1.504915e-03  4.053648e-04  0 
 -5.820685e-04  3.947393e-04  0 
 -1.245514e-03  1.513666e-04  0 
 -1.009211e-03  1.745885e-04  0 
 -1.295538e-03  -4.601211e-03  0 
 -6.411589e-05  2.794306e-03  0 
 -5.737529e-04  1.564444e-03  0 
 -1.744155e-03  -4.564017e-04  0 
 -1.948936e-03  7.589637e-04  0 
 -6.788503e-03  -5.332566e-03  0 
 -5.704604e-03  -8.520468e-03  0 
 -1.678172e-04  1.948859e-03  0 
 -9.686003e-04  6.755173e-04  0 
 -8.054559e-04  3.673219e-04  0 
 -1.287066e-03  5.283522e-04  0 
 -1.247783e-03  9.071561e-04  0 
 -1.235764e-03  7.193846e-04  0 
 -1.148655e-03  3.800385e-04  0 
 -7.999044e-04  6.173354e-04  0 
 -1.142967e-03  1.024773e-03  0 
 -1.103715e-03  8.111117e-04  0 
 -9.517408e-04  8.857009e-04  0 
 -1.100482e-03  6.194961e-04  0 
 -9.691375e-04  4.740562e-04  0 
 -1.334731e-03  3.126857e-04  0 
 -1.236273e-03  1.095003e-03  0 
VECTORS displacement_ITER15 FLOAT
 2.995950e-04  -1.155712e-03  0 
 -8.284549e-05  -1.235213e-03  0 
 -3.457704e-04  -1.240235e-03  0 
 1.665960e-04  -1.018799e-03  0 
 9.820568e-05  -8.420160e-04  0 
 5.213492e-05  -7.009177e-04  0 
 -7.732294e-04  -6.991928e-04  0 
 -1.158799e-04  -5.221498e-04  0 
 -3.139223e-04  -4.905298e-04  0 
 -8.890484e-04  -5.082288e-03  0 
 5.233555e-04  1.790555e-03  0 
 7.832459e-04  -1.103746e-04  0 
 -2.391291e-04  -2.283541e-03  0 
 -1.182864e-03  -7.669486e-04  0 
 -6.793713e-03  -8.432444e-03  0 
 -4.647686e-03  -1.125741e-02  0 
 8.358514e-04  4.328937e-04  0 
 -3.694763e-04  -8.124810e-04  0 
 -5.397071e-04  -6.341201e-04  0 
 -4.999942e-05  -7.173300e-04  0 
 -9.606421e-06  -9.172441e-04  0 
 -6.287674e-05  -8.165863e-04  0 
 -1.747565e-04  -6.303471e-04  0 
 -5.566603e-04  -8.060823e-04  0 
 -1.694782e-04  -1.035799e-03  0 
 -2.118898e-04  -8.759171e-04  0 
 -4.084993e-04  -9.551498e-04  0 
 -2.152018e-04  -7.595008e-04  0 
 -3.571560e-04  -6.874345e-04  0 
 -4.333037e-05  -6.299719e-04  0 
 5.638835e-05  -1.033891e-03  0 
VECTORS displacement_ITER16 FLOAT
 5.995117e-04  -1.950514e-03  0 
 6.054067e-04  -2.033769e-03  0 
 7.307301e-04  -2.040218e-03  0 
 4.666359e-04  -2.205525e-03  0 
 3.982017e-04  -2.417097e-03  0 
 3.513937e-04  -2.663909e-03  0 
 1.068095e-03  -2.659156e-03  0 
 5.749669e-04  -2.876091e-03  0 
 7.618171e-04  -2.840684e-03  0 
 -6.002391e-04  -3.216103e-03  0 
 8.394595e-04  6.405340e-04  0 
 1.046404e-03  -1.428594e-03  0 
 3.166108e-04  -3.497259e-03  0 
 -3.544652e-04  -1.834740e-03  0 
 -4.182275e-03  -7.751636e-03  0 
 -2.867776e-03  -1.062258e-02  0 
 9.822336e-04  -5.495327e-04  0 
 7.941538e-04  -2.434513e-03  0 
 9.138555e-04  -2.681398e-03  0 
 5.426889e-04  -2.553459e-03  0 
 5.816050e-04  -2.233087e-03  0 
 5.874650e-04  -2.392318e-03  0 
 6.565480e-04  -2.679166e-03  0 
 9.195697e-04  -2.486873e-03  0 
 6.587085e-04  -2.141341e-03  0 
 6.906917e-04  -2.317997e-03  0 
 8.053306e-04  -2.262176e-03  0 
 6.943610e-04  -2.477430e-03  0 
 7.951939e-04  -2.598954e-03  0 
 5.000193e-04  -2.741637e-03  0 
 5.984547e-04  -2.074164e-03  0 
VECTORS displacement_ITER17 FLOAT
 -3.157238e-05  -1.936910e-03  0 
 3.673407e-05  -2.023014e-03  0 
 2.250277e-04  -2.030767e-03  0 
 -1.648035e-04  -2.257266e-03  0 
 -2.335550e-04  -2.531863e-03  0 
 -2.818212e-04  -2.843625e-03  0 
 6.747818e-04  -2.832902e-03  0 
 8.318917e-06  -3.120232e-03  0 
 2.576650e-04  -3.079260e-03  0 
 -1.059709e-03  -2.466605e-03  0 
 -1.703179e-05  4.216434e-04  0 
 2.401245e-04  -1.536319e-03  0 
 -3.752946e-04  -3.363180e-03  0 
 -9.606779e-04  -1.783978e-03  0 
 -3.996569e-03  -6.633262e-03  0 
 -3.018535e-03  -9.364986e-03  0 
 1.707828e-04  -6.318058e-04  0 
 3.033726e-04  -2.558914e-03  0 
 4.670408e-04  -2.870677e-03  0 
 -4.002468e-05  -2.711187e-03  0 
 -1.954527e-06  -2.305846e-03  0 
 1.393137e-05  -2.507632e-03  0 
 1.137500e-04  -2.871837e-03  0 
 4.769646e-04  -2.621623e-03  0 
 1.132233e-04  -2.180838e-03  0 
 1.579507e-04  -2.412423e-03  0 
 3.222143e-04  -2.335908e-03  0 
 1.635015e-04  -2.616426e-03  0 
 3.032302e-04  -2.769036e-03  0 
 -9.120763e-05  -2.946364e-03  0 
 6.803293e-06  -2.101857e-03  0 
VECTORS displacement_ITER18 FLOAT
 -9.137167e-04  -1.828348e-03  0 
 -7.744317e-04  -1.916493e-03  0 
 -5.154687e-04  -1.925260e-03  0 
 -1.047632e-03  -2.222469e-03  0 
 -1.117256e-03  -2.568689e-03  0 
 -1.167133e-03  -2.953656e-03  0 
 6.874225e-05  -2.937862e-03  0 
 -8.032173e-04  -3.302802e-03  0 
 -4.822713e-04  -3.257644e-03  0 
 -1.620842e-03  -1.933205e-03  0 
 -4.985638e-04  -1.437954e-04  0 
 -5.350085e-04  -1.682272e-03  0 
 -1.086110e-03  -3.258365e-03  0 
 -1.309240e-03  -1.949169e-03  0 
 -3.545908e-03  -5.751739e-03  0 
 -3.197903e-03  -8.213035e-03  0 
 -5.059461e-04  -8.179508e-04  0 
 -4.207883e-04  -2.604456e-03  0 
 -2.054269e-04  -2.992496e-03  0 
 -8.691345e-04  -2.796227e-03  0 
 -8.310049e-04  -2.294332e-03  0 
 -8.043203e-04  -2.544267e-03  0 
 -6.707593e-04  -2.996218e-03  0 
 -1.911090e-04  -2.678362e-03  0 
 -6.722988e-04  -2.130804e-03  0 
 -6.138269e-04  -2.424463e-03  0 
 -3.930450e-04  -2.323545e-03  0 
 -6.067625e-04  -2.679362e-03  0 
 -4.226492e-04  -2.867451e-03  0 
 -9.301746e-04  -3.084192e-03  0 
 -8.309428e-04  -2.039429e-03  0 
VECTORS displacement_ITER19 FLOAT
 -7.855347e-04  -1.673481e-03  0 
 -6.505562e-04  -1.763622e-03  0 
 -3.965701e-04  -1.773405e-03  0 
 -9.207833e-04  -2.066577e-03  0 
 -9.918133e-04  -2.409551e-03  0 
 -1.043704e-03  -2.793019e-03  0 
 1.738457e-04  -2.770873e-03  0 
 -6.815771e-04  -3.138801e-03  0 
 -3.639386e-04  -3.089421e-03  0 
 -1.054821e-03  -2.034425e-03  0 
 -1.227451e-04  -5.616230e-04  0 
 -3.427977e-04  -1.693564e-03  0 
 -8.648810e-04  -3.023600e-03  0 
 -8.482617e-04  -2.001576e-03  0 
 -2.567834e-03  -5.061219e-03  0 
 -2.619763e-03  -7.147053e-03  0 
 -2.030267e-04  -9.230086e-04  0 
 -3.028428e-04  -2.443939e-03  0 
 -9.231140e-05  -2.825819e-03  0 
 -7.457302e-04  -2.634647e-03  0 
 -7.066270e-04  -2.136425e-03  0 
 -6.808943e-04  -2.384368e-03  0 
 -5.490727e-04  -2.832755e-03  0 
 -7.774912e-05  -2.517277e-03  0 
 -5.501149e-04  -1.974856e-03  0 
 -4.926223e-04  -2.265478e-03  0 
 -2.757533e-04  -2.166115e-03  0 
 -4.856698e-04  -2.518048e-03  0 
 -3.045248e-04  -2.703924e-03  0 
 -8.073452e-04  -2.922542e-03  0 
 -7.053669e-04  -1.883722e-03  0 
VECTORS displacement_ITER20 FLOAT
 -1.677514e-03  -1.152983e-03  0 
 -1.320608e-03  -1.245572e-03  0 
 -8.446557e-04  -1.256256e-03  0 
 -1.813453e-03  -1.771293e-03  0 
 -1.884972e-03  -2.337052e-03  0 
 -1.937763e-03  -2.944404e-03  0 
 1.641107e-04  -2.916699e-03  0 
 -1.352221e-03  -3.512238e-03  0 
 -8.125566e-04  -3.459479e-03  0 
 -1.568299e-03  -1.488204e-03  0 
 -1.047727e-03  -8.513059e-04  0 
 -1.361492e-03  -1.663211e-03  0 
 -1.839369e-03  -2.937968e-03  0 
 -1.722298e-03  -2.071993e-03  0 
 -3.028793e-03  -4.607554e-03  0 
 -3.240952e-03  -6.365731e-03  0 
 -1.136912e-03  -8.679586e-04  0 
 -7.013758e-04  -2.396557e-03  0 
 -3.251017e-04  -3.021872e-03  0 
 -1.471081e-03  -2.711624e-03  0 
 -1.432341e-03  -1.914637e-03  0 
 -1.372971e-03  -2.311579e-03  0 
 -1.138169e-03  -3.030532e-03  0 
 -2.975862e-04  -2.503015e-03  0 
 -1.140093e-03  -1.632357e-03  0 
 -1.040280e-03  -2.115493e-03  0 
 -6.455950e-04  -1.938329e-03  0 
 -1.029568e-03  -2.526138e-03  0 
 -7.095540e-04  -2.822471e-03  0 
 -1.561739e-03  -3.158229e-03  0 
 -1.458985e-03  -1.503902e-03  0 
VECTORS displacement_ITER21 FLOAT
 -1.524403e-03  -7.752610e-04  0 
 -1.077925e-03  -8.710983e-04  0 
 -5.113089e-04  -8.829885e-04  0 
 -1.660987e-03  -1.487081e-03  0 
 -1.732609e-03  -2.143860e-03  0 
 -1.786114e-03  -2.843788e-03  0 
 6.695539e-04  -2.810882e-03  0 
 -1.108818e-03  -3.501730e-03  0 
 -4.784075e-04  -3.444817e-03  0 
 -1.242918e-03  -1.260513e-03  0 
 -1.105901e-03  -8.231220e-04  0 
 -1.391174e-03  -1.475779e-03  0 
 -1.804682e-03  -2.573172e-03  0 
 -1.660027e-03  -1.819882e-03  0 
 -2.524222e-03  -3.595544e-03  0 
 -2.822464e-03  -5.138680e-03  0 
 -1.142475e-03  -7.203889e-04  0 
 -3.475623e-04  -2.214813e-03  0 
 9.415060e-05  -2.937164e-03  0 
 -1.249470e-03  -2.579824e-03  0 
 -1.211332e-03  -1.660661e-03  0 
 -1.137999e-03  -2.118620e-03  0 
 -8.607433e-04  -2.947693e-03  0 
 1.273839e-04  -2.335155e-03  0 
 -8.642370e-04  -1.329802e-03  0 
 -7.468047e-04  -1.891567e-03  0 
 -2.802967e-04  -1.683371e-03  0 
 -7.341779e-04  -2.366449e-03  0 
 -3.581010e-04  -2.707545e-03  0 
 -1.352324e-03  -3.092243e-03  0 
 -1.249488e-03  -1.184961e-03  0 
VECTORS displacement_ITER22 FLOAT
 -1.299951e-03  -6.759949e-04  0 
 -7.994841e-04  -7.767053e-04  0 
 -1.783321e-04  -7.907896e-04  0 
 -1.437050e-03  -1.447258e-03  0 
 -1.508547e-03  -2.159536e-03  0 
 -1.562819e-03  -2.916248e-03  0 
 1.097834e-03  -2.875476e-03  0 
 -8.298671e-04  -3.627602e-03  0 
 -1.455256e-04  -3.565489e-03  0 
 -9.438181e-04  -7.487583e-04  0 
 -1.026285e-03  -1.041132e-03  0 
 -1.307054e-03  -1.521702e-03  0 
 -1.641044e-03  -2.408785e-03  0 
 -1.458035e-03  -1.796297e-03  0 
 -1.902566e-03  -2.824745e-03  0 
 -2.244681e-03  -4.032836e-03  0 
 -1.049327e-03  -8.441871e-04  0 
 -2.631215e-06  -2.237749e-03  0 
 4.756642e-04  -3.015802e-03  0 
 -9.830339e-04  -2.632741e-03  0 
 -9.453133e-04  -1.639455e-03  0 
 -8.635297e-04  -2.134495e-03  0 
 -5.607667e-04  -3.029651e-03  0 
 5.131465e-04  -2.366465e-03  0 
 -5.654020e-04  -1.279566e-03  0 
 -4.373685e-04  -1.889000e-03  0 
 7.162554e-05  -1.662576e-03  0 
 -4.235195e-04  -2.402421e-03  0 
 -1.463679e-05  -2.769865e-03  0 
 -1.093563e-03  -3.185657e-03  0 
 -9.904264e-04  -1.123649e-03  0 
VECTORS displacement_ITER23 FLOAT
 -1.416823e-03  -1.148881e-03  0 
 -9.765752e-04  -1.255196e-03  0 
 -4.170836e-04  -1.272058e-03  0 
 -1.553948e-03  -1.865274e-03  0 
 -1.625158e-03  -2.517694e-03  0 
 -1.679930e-03  -3.214824e-03  0 
 7.234293e-04  -3.166619e-03  0 
 -1.007219e-03  -3.863872e-03  0 
 -3.856454e-04  -3.797550e-03  0 
 -1.226901e-03  -4.598211e-04  0 
 -1.169449e-03  -1.675928e-03  0 
 -1.497570e-03  -1.960346e-03  0 
 -1.732494e-03  -2.574428e-03  0 
 -1.488193e-03  -2.143855e-03  0 
 -1.607344e-03  -2.474829e-03  0 
 -1.953781e-03  -3.313265e-03  0 
 -1.274884e-03  -1.433875e-03  0 
 -2.557889e-04  -2.589119e-03  0 
 1.718026e-04  -3.295315e-03  0 
 -1.144360e-03  -2.950315e-03  0 
 -1.106345e-03  -2.037834e-03  0 
 -1.033870e-03  -2.492609e-03  0 
 -7.596668e-04  -3.313351e-03  0 
 2.070459e-04  -2.708619e-03  0 
 -7.639503e-04  -1.711298e-03  0 
 -6.477865e-04  -2.268446e-03  0 
 -1.893105e-04  -2.064112e-03  0 
 -6.349608e-04  -2.738326e-03  0 
 -2.661451e-04  -3.074216e-03  0 
 -1.247466e-03  -3.461483e-03  0 
 -1.143593e-03  -1.563503e-03  0 
VECTORS displacement_ITER24 FLOAT
 -1.147689e-03  -1.290711e-03  0 
 -8.363871e-04  -1.401541e-03  0 
 -4.069386e-04  -1.420316e-03  0 
 -1.285136e-03  -1.882673e-03  0 
 -1.356465e-03  -2.406840e-03  0 
 -1.412154e-03  -2.976240e-03  0 
 4.643475e-04  -2.921386e-03  0 
 -8.677504e-04  -3.495021e-03  0 
 -3.764055e-04  -3.425175e-03  0 
 -1.128853e-03  -2.934821e-04  0 
 -9.268406e-04  -1.852186e-03  0 
 -1.250098e-03  -1.987944e-03  0 
 -1.442927e-03  -2.478936e-03  0 
 -1.251430e-03  -2.178086e-03  0 
 -1.519635e-03  -2.541955e-03  0 
 -1.646091e-03  -3.105877e-03  0 
 -1.063642e-03  -1.610245e-03  0 
 -2.751077e-04  -2.463065e-03  0 
 5.149389e-05  -3.023035e-03  0 
 -9.719653e-04  -2.752785e-03  0 
 -9.331672e-04  -2.012564e-03  0 
 -8.804980e-04  -2.381356e-03  0 
 -6.664631e-04  -3.045006e-03  0 
 8.028957e-05  -2.563233e-03  0 
 -6.700050e-04  -1.756387e-03  0 
 -5.787335e-04  -2.201954e-03  0 
 -2.253917e-04  -2.043411e-03  0 
 -5.680739e-04  -2.579919e-03  0 
 -2.816712e-04  -2.850487e-03  0 
 -1.059035e-03  -3.173980e-03  0 
 -9.537554e-04  -1.628492e-03  0 
VECTORS displacement_ITER25 FLOAT
 -8.348196e-04  -1.039903e-03  0 
 -7.004727e-04  -1.155068e-03  0 
 -4.471146e-04  -1.175210e-03  0 
 -9.736153e-04  -1.460270e-03  0 
 -1.045694e-03  -1.809828e-03  0 
 -1.103177e-03  -2.206319e-03  0 
 6.264102e-05  -2.145062e-03  0 
 -7.320008e-04  -2.549422e-03  0 
 -4.158523e-04  -2.475218e-03  0 
 -8.138220e-04  -5.910921e-04  0 
 -9.689592e-04  -1.394470e-03  0 
 -1.063377e-03  -1.527723e-03  0 
 -1.242080e-03  -1.981621e-03  0 
 -1.344731e-03  -1.705182e-03  0 
 -2.129385e-03  -2.522759e-03  0 
 -1.656590e-03  -2.967470e-03  0 
 -9.230376e-04  -1.298330e-03  0 
 -3.545832e-04  -1.845944e-03  0 
 -1.634266e-04  -2.209183e-03  0 
 -7.918875e-04  -2.038162e-03  0 
 -7.521609e-04  -1.531796e-03  0 
 -7.262965e-04  -1.783844e-03  0 
 -5.932617e-04  -2.234854e-03  0 
 -1.440615e-04  -1.920290e-03  0 
 -5.968093e-04  -1.371546e-03  0 
 -5.389578e-04  -1.665324e-03  0 
 -3.280027e-04  -1.568929e-03  0 
 -5.309141e-04  -1.918694e-03  0 
 -3.555584e-04  -2.101366e-03  0 
 -8.573139e-04  -2.337715e-03  0 
 -7.501298e-04  -1.270956e-03  0 
VECTORS displacement_ITER26 FLOAT
 -1.122968e-03  -6.762431e-04  0 
 -8.954939e-04  -7.929139e-04  0 
 -5.471868e-04  -8.136846e-04  0 
 -1.263875e-03  -1.194118e-03  0 
 -1.337231e-03  -1.639512e-03  0 
 -1.395922e-03  -2.132183e-03  0 
 1.519744e-04  -2.069520e-03  0 
 -9.275789e-04  -2.572398e-03  0 
 -5.167476e-04  -2.496617e-03  0 
 -6.427043e-04  -2.489636e-04  0 
 -8.822977e-04  -1.551247e-03  0 
 -1.206825e-03  -1.425366e-03  0 
 -1.288955e-03  -1.737549e-03  0 
 -1.147599e-03  -1.600721e-03  0 
 -1.297979e-03  -1.661448e-03  0 
 -1.206183e-03  -1.992308e-03  0 
 -1.036507e-03  -1.287708e-03  0 
 -4.336212e-04  -1.685885e-03  0 
 -1.707440e-04  -2.155283e-03  0 
 -1.011457e-03  -1.931986e-03  0 
 -9.710917e-04  -1.296571e-03  0 
 -9.312324e-04  -1.612922e-03  0 
 -7.540737e-04  -2.181545e-03  0 
 -1.459830e-04  -1.774589e-03  0 
 -7.575492e-04  -1.084431e-03  0 
 -6.818602e-04  -1.460877e-03  0 
 -3.948438e-04  -1.330771e-03  0 
 -6.723176e-04  -1.782741e-03  0 
 -4.374200e-04  -2.013472e-03  0 
 -1.089296e-03  -2.300548e-03  0 
 -9.804391e-04  -9.675199e-04  0 
VECTORS displacement_ITER27 FLOAT
 -1.195072e-03  -3.854355e-04  0 
 -9.558995e-04  -5.030347e-04  0 
 -5.943912e-04  -5.245881e-04  0 
 -1.337878e-03  -9.184243e-04  0 
 -1.412381e-03  -1.377999e-03  0 
 -1.472204e-03  -1.885271e-03  0 
 1.320526e-04  -1.822040e-03  0 
 -9.888471e-04  -2.340378e-03  0 
 -5.647382e-04  -2.262972e-03  0 