# vtk DataFile Version 3.1
this is an vtk file created by FEMAC
ASCII
DATASET UNSTRUCTURED_GRID
POINTS 31 FLOAT
1.000000 5.000000 0.000000
1.000000 6.000000 0.000000
0.750000 5.000000 0.000000
1.000000 4.750000 0.000000
0.750000 6.000000 0.000000
1.000000 5.250000 0.000000
1.000000 5.500000 0.000000
1.000000 5.750000 0.000000
1.250000 5.000000 0.000000
1.500000 5.000000 0.000000
1.250000 6.000000 0.000000
1.500000 6.000000 0.000000
0.847252 4.832715 0.000000
0.660302 5.785301 0.000000
0.825570 5.361866 0.000000
0.825957 5.628272 0.000000
0.847252 5.832715 0.000000
0.847123 5.164854 0.000000
1.332147 4.803316 0.000000
1.500000 4.775000 0.000000
1.200764 4.609959 0.000000
1.396983 4.637131 0.000000
1.156582 4.832655 0.000000
1.325972 5.178472 0.000000
1.500000 5.225000 0.000000
1.171968 5.341551 0.000000
1.216647 5.581177 0.000000
1.399662 5.398247 0.000000
1.507893 5.661856 0.000000
1.245757 5.832172 0.000000
1.149588 5.154005 0.000000
CELLS 42 168 
3 2 12  0
3 12  3  0
3 6 15 14
3 14  5  6
3 7 15  6
3 4 16  1
3 16  7  1
3 16  4 13
3 17  2  0
3 5 17  0
3 16 15  7
3 13 15 16
3 14 17  5
3 18  9  8
3 18 19  9
3 18 21 19
3 21 18 20
3 3 22  0
3 8 22 18
3 22  8  0
3 20 22  3
3 20 18 22
3 9 23  8
3 24 23  9
3 27 23 24
3 5 25  6
3 26  7  6
3 27 25 23
3 7 29  1
3 29 10  1
3 30  5  0
3 30  8 23
3 8 30  0
3 26 29  7
3 30 25  5
3 23 25 30
3 6 25 26
3 26 25 27
3 27 28 26
3 29 11 10
3 29 28 11
3 26 28 29
CELL_TYPES 42
5 5 5 5 5 5 5 5 5 5 5 5 5 5 5 5 5 5 5 5 5 5 5 5 5 5 5 5 5 5 5 5 5 5 5 5 5 5 5 5 5 5 
POINT_DATA 31
VECTORS displacement_ITER1 FLOAT
 2.730349e-02  -3.531932e-02  0 
 9.740489e-02  -3.566911e-02  0 
 2.724432e-02  -3.668085e-03  0 
 -4.344171e-03  -3.522776e-02  0 
 5.170052e-02  -5.467696e-02  0 
 4.496784e-02  -3.543180e-02  0 
 6.250471e-02  -3.553154e-02  0 
 7.998543e-02  -3.560592e-02  0 
 2.737483e-02  -5.300139e-02  0 
 2.741472e-02  -7.061062e-02  0 
 9.745719e-02  -5.310506e-02  0 
 9.750363e-02  -7.056281e-02  0 
 6.089760e-03  -1.592839e-02  0 
 5.722431e-02  -2.809957e-02  0 
 4.640978e-02  -1.941254e-02  0 
 6.408579e-02  -1.947967e-02  0 
 7.535032e-02  -2.716088e-02  0 
 3.434894e-02  -1.809076e-02  0 
 2.298135e-02  -5.612173e-02  0 
 3.508697e-02  -5.963841e-02  0 
 6.241606e-03  -2.997448e-02  0 
 2.150068e-02  -4.549709e-02  0 
 1.310633e-02  -4.784652e-02  0 
 3.996839e-02  -5.836998e-02  0 
 4.325205e-02  -7.061294e-02  0 
 5.142538e-02  -4.755067e-02  0 
 6.821560e-02  -5.072033e-02  0 
 5.542040e-02  -6.354021e-02  0 
 7.386244e-02  -7.109249e-02  0 
 8.574841e-02  -5.277257e-02  0 
 3.822507e-02  -4.594907e-02  0 
VECTORS displacement_ITER2 FLOAT
 7.337933e-03  -8.169026e-03  0 
 6.370661e-02  -8.395859e-03  0 
 7.157844e-03  -1.679043e-02  0 
 1.588315e-02  -8.032670e-03  0 
 3.316492e-02  -2.405033e-02  0 
 2.149628e-02  -8.310179e-03  0 
 3.554696e-02  -8.344301e-03  0 
 4.962347e-02  -8.358511e-03  0 
 7.480880e-03  -2.230635e-02  0 
 7.553964e-03  -3.630426e-02  0 
 6.375428e-02  -2.249309e-02  0 
 6.379987e-02  -3.662556e-02  0 
 1.300987e-02  -1.330531e-02  0 
 3.590706e-02  -6.064858e-03  0 
 2.348249e-02  -4.207608e-04  0 
 3.839936e-02  7.404105e-04  0 
 4.787579e-02  -3.980290e-03  0 
 1.106461e-02  -4.330207e-03  0 
 1.719612e-02  -3.379532e-02  0 
 2.411457e-02  -4.499900e-02  0 
 6.187697e-03  -2.544341e-02  0 
 1.302214e-02  -3.590071e-02  0 
 1.515602e-02  -1.854312e-02  0 
 1.752041e-02  -2.661449e-02  0 
 2.016780e-02  -3.635857e-02  0 
 2.665311e-02  -1.799864e-02  0 
 4.012592e-02  -2.054173e-02  0 
 2.985534e-02  -3.080227e-02  0 
 4.470084e-02  -3.697994e-02  0 
 5.427918e-02  -2.221693e-02  0 
 1.611503e-02  -1.671348e-02  0 
VECTORS displacement_ITER3 FLOAT
 1.262085e-03  -3.596133e-03  0 
 2.535390e-02  -4.058940e-03  0 
 9.186870e-04  -1.783819e-03  0 
 -8.066963e-04  -3.457202e-03  0 
 1.566399e-02  -8.529350e-03  0 
 7.584594e-03  -3.848700e-03  0 
 1.356613e-02  -3.995883e-03  0 
 1.946641e-02  -4.049446e-03  0 
 1.526293e-03  -9.822328e-03  0 
 1.677370e-03  -1.586748e-02  0 
 2.536734e-02  -9.958585e-03  0 
 2.537223e-02  -1.588359e-02  0 
 -1.813903e-04  -2.234632e-03  0 
 1.538366e-02  -2.815187e-03  0 
 8.825084e-03  -4.336676e-04  0 
 1.525052e-02  -6.628689e-04  0 
 1.940024e-02  -2.334108e-03  0 
 3.842018e-03  -9.555532e-04  0 
 4.057951e-03  -1.134404e-02  0 
 9.033851e-03  -1.213893e-02  0 
 1.014606e-03  -5.430610e-03  0 
 5.379762e-03  -7.702811e-03  0 
 1.487999e-03  -7.643319e-03  0 
 5.912303e-03  -1.174567e-02  0 
 7.064087e-03  -1.589674e-02  0 
 9.819147e-03  -8.057404e-03  0 
 1.550125e-02  -9.149626e-03  0 
 1.117650e-02  -1.349457e-02  0 
 1.739644e-02  -1.603155e-02  0 
 2.140457e-02  -9.848345e-03  0 
 5.256968e-03  -7.479260e-03  0 
VECTORS displacement_ITER4 FLOAT
 1.011144e-03  1.589360e-04  0 
 5.760473e-03  -4.464397e-04  0 
 6.023527e-04  -6.744516e-04  0 
 1.435311e-03  2.283403e-04  0 
 3.275191e-03  -2.438113e-03  0 
 2.639370e-03  -1.002602e-04  0 
 3.828904e-03  -3.151482e-04  0 
 4.840185e-03  -4.244337e-04  0 
 1.294525e-03  -1.333335e-03  0 
 1.442942e-03  -2.683195e-03  0 
 5.742922e-03  -1.360343e-03  0 
 5.713212e-03  -2.256813e-03  0 
 1.263687e-03  -4.296137e-05  0 
 3.542249e-03  -1.921019e-03  0 
 2.595082e-03  1.383172e-04  0 
 3.890527e-03  -2.736604e-04  0 
 4.506848e-03  -6.841904e-04  0 
 1.419803e-03  2.362687e-04  0 
 1.109233e-03  -1.876227e-03  0 
 1.397192e-03  -2.619720e-03  0 
 -2.853200e-04  -1.225872e-03  0 
 3.354251e-04  -1.965047e-03  0 
 1.251548e-03  -5.130422e-04  0 
 2.315156e-03  -1.815418e-03  0 
 2.562834e-03  -2.661306e-03  0 
 3.141635e-03  -1.041626e-03  0 
 4.197584e-03  -1.267834e-03  0 
 3.411099e-03  -2.101275e-03  0 
 4.477751e-03  -2.406146e-03  0 
 5.145500e-03  -1.363579e-03  0 
 2.119412e-03  -8.977073e-04  0 
VECTORS displacement_ITER5 FLOAT
 8.356119e-04  -7.863206e-04  0 
 2.082128e-03  -1.233389e-03  0 
 4.564524e-04  -3.841763e-04  0 
 1.111836e-04  -6.655553e-04  0 
 1.807968e-03  -1.620969e-03  0 
 1.487648e-03  -1.032998e-03  0 
 1.758931e-03  -1.180564e-03  0 
 1.923170e-03  -1.235682e-03  0 
 1.133586e-03  -1.291127e-03  0 
 1.311882e-03  -1.626760e-03  0 
 2.081346e-03  -1.400455e-03  0 
 2.070401e-03  -1.587899e-03  0 
 2.874648e-04  -2.633820e-04  0 
 1.386079e-03  -1.713036e-03  0 
 1.276378e-03  -9.107872e-04  0 
 1.558842e-03  -1.295744e-03  0 
 1.754046e-03  -1.457560e-03  0 
 9.452986e-04  -5.910464e-04  0 
 6.028691e-04  -1.141683e-03  0 
 6.583804e-04  -1.347125e-03  0 
 -1.697746e-04  -4.596916e-04  0 
 2.199688e-04  -9.962151e-04  0 
 4.675461e-04  -8.561453e-04  0 
 1.448188e-03  -1.491459e-03  0 
 1.535083e-03  -1.645744e-03  0 
 1.629078e-03  -1.317326e-03  0 
 1.831051e-03  -1.369493e-03  0 
 1.679080e-03  -1.538743e-03  0 
 1.873996e-03  -1.559981e-03  0 
 1.970179e-03  -1.398414e-03  0 
 1.342025e-03  -1.258495e-03  0 
VECTORS displacement_ITER6 FLOAT
 6.793720e-04  -7.649335e-04  0 
 2.307033e-03  -1.145202e-03  0 
 4.028363e-04  -3.909604e-04  0 
 1.921724e-04  -5.639508e-04  0 
 1.864981e-03  -1.345095e-03  0 
 1.393671e-03  -9.963749e-04  0 
 1.755851e-03  -1.122663e-03  0 
 2.041477e-03  -1.149725e-03  0 
 9.610132e-04  -1.344726e-03  0 
 1.137847e-03  -1.749111e-03  0 
 2.307536e-03  -1.420540e-03  0 
 2.306468e-03  -1.699967e-03  0 
 2.558750e-04  -3.692385e-04  0 
 1.428886e-03  -8.850084e-04  0 
 1.314926e-03  -8.470612e-04  0 
 1.676009e-03  -1.004097e-03  0 
 1.898050e-03  -1.125985e-03  0 
 9.730691e-04  -6.645002e-04  0 
 6.499201e-04  -1.096095e-03  0 
 9.051967e-04  -9.212190e-04  0 
 5.195209e-04  -7.906015e-04  0 
 8.225390e-04  -7.591486e-04  0 
 4.960677e-04  -9.481765e-04  0 
 1.324704e-03  -1.567997e-03  0 
 1.429522e-03  -1.791402e-03  0 
 1.562903e-03  -1.335512e-03  0 
 1.854984e-03  -1.400321e-03  0 
 1.635071e-03  -1.649146e-03  0 
 1.915716e-03  -1.726107e-03  0 
 2.122513e-03  -1.415421e-03  0 
 1.216721e-03  -1.272886e-03  0 
VECTORS displacement_ITER7 FLOAT
 6.505477e-04  -6.360634e-04  0 
 2.593814e-03  -1.013406e-03  0 
 3.811466e-04  -3.141930e-04  0 
 1.998958e-04  -4.210499e-04  0 
 1.763143e-03  -1.468158e-03  0 
 1.434648e-03  -8.638457e-04  0 
 1.878704e-03  -9.841611e-04  0 
 2.244823e-03  -1.014968e-03  0 
 9.299779e-04  -1.289623e-03  0 
 1.111107e-03  -1.759060e-03  0 
 2.593414e-03  -1.369570e-03  0 
 2.589709e-03  -1.730706e-03  0 
 2.563452e-04  -2.710852e-04  0 
 1.542481e-03  -9.121944e-04  0 
 1.365332e-03  -6.643775e-04  0 
 1.813301e-03  -7.928287e-04  0 
 2.073935e-03  -9.692486e-04  0 
 9.458298e-04  -5.063190e-04  0 
 7.191834e-04  -1.251782e-03  0 
 9.078774e-04  -1.491528e-03  0 
 3.162482e-04  -7.522961e-04  0 
 5.894325e-04  -1.167255e-03  0 
 5.352588e-04  -8.932005e-04  0 
 1.341473e-03  -1.536376e-03  0 
 1.459378e-03  -1.811856e-03  0 
 1.631353e-03  -1.254827e-03  0 
 2.005787e-03  -1.332379e-03  0 
 1.720154e-03  -1.641610e-03  0 
 2.100218e-03  -1.755001e-03  0 
 2.355220e-03  -1.364144e-03  0 
 1.228679e-03  -1.186828e-03  0 
VECTORS displacement_ITER8 FLOAT
 5.883324e-04  -5.761125e-04  0 
 2.297134e-03  -9.068672e-04  0 
 3.473962e-04  -2.977271e-04  0 
 1.842038e-04  -3.837604e-04  0 
 1.652821e-03  -1.374504e-03  0 
 1.276998e-03  -7.807976e-04  0 
 1.661544e-03  -8.849495e-04  0 
 1.985963e-03  -9.066465e-04  0 
 8.425467e-04  -1.145272e-03  0 
 1.008918e-03  -1.546549e-03  0 
 2.296076e-03  -1.222167e-03  0 
 2.292558e-03  -1.539324e-03  0 
 2.420404e-04  -2.611103e-04  0 
 1.369327e-03  -7.604287e-04  0 
 1.157638e-03  -5.454575e-04  0 
 1.568585e-03  -6.942985e-04  0 
 1.862365e-03  -8.979840e-04  0 
 7.951657e-04  -4.194214e-04  0 
 7.524994e-04  -1.105925e-03  0 
 9.965884e-04  -1.289614e-03  0 
 4.026539e-04  -5.664420e-04  0 
 7.553095e-04  -9.192334e-04  0 
 5.206502e-04  -8.021091e-04  0 
 1.198731e-03  -1.363075e-03  0 
 1.302299e-03  -1.595834e-03  0 
 1.447242e-03  -1.121268e-03  0 
 1.771367e-03  -1.189550e-03  0 
 1.524278e-03  -1.455843e-03  0 
 1.856446e-03  -1.570039e-03  0 
 2.085743e-03  -1.218080e-03  0 
 1.098444e-03  -1.061625e-03  0 
VECTORS displacement_ITER9 FLOAT
 5.875374e-04  -5.711720e-04  0 
 2.222248e-03  -8.999903e-04  0 
 3.472586e-04  -2.941751e-04  0 
 1.903742e-04  -3.792389e-04  0 
 1.640699e-03  -1.260312e-03  0 
 1.258127e-03  -7.736662e-04  0 
 1.626050e-03  -8.766377e-04  0 
 1.931093e-03  -9.001564e-04  0 
 8.432495e-04  -1.120428e-03  0 
 1.013720e-03  -1.497108e-03  0 
 2.221284e-03  -1.195759e-03  0 
 2.217734e-03  -1.493959e-03  0 
 2.449469e-04  -2.592701e-04  0 
 1.351294e-03  -8.655420e-04  0 
 1.145531e-03  -5.574434e-04  0 
 1.536334e-03  -7.350934e-04  0 
 1.795916e-03  -9.041417e-04  0 
 8.027420e-04  -4.323845e-04  0 
 6.729100e-04  -1.073877e-03  0 
 8.214698e-04  -1.303194e-03  0 
 3.557519e-04  -6.124097e-04  0 
 6.186896e-04  -9.811471e-04  0 
 4.944676e-04  -7.788799e-04  0 
 1.183105e-03  -1.333575e-03  0 
 1.282463e-03  -1.552230e-03  0 
 1.421722e-03  -1.101530e-03  0 
 1.730534e-03  -1.165562e-03  0 
 1.494625e-03  -1.420656e-03  0 
 1.809434e-03  -1.521054e-03  0 
 2.023959e-03  -1.191893e-03  0 
 1.085600e-03  -1.045042e-03  0 
VECTORS displacement_ITER10 FLOAT
 5.857879e-04  -5.671155e-04  0 
 2.214399e-03  -8.979896e-04  0 
 3.456818e-04  -2.911547e-04  0 
 1.899088e-04  -3.748960e-04  0 
 1.638156e-03  -1.253046e-03  0 
 1.256223e-03  -7.701750e-04  0 
 1.622474e-03  -8.745550e-04  0 
 1.925350e-03  -8.984455e-04  0 
 8.413457e-04  -1.116408e-03  0 
 1.011059e-03  -1.494455e-03  0 
 2.213516e-03  -1.191932e-03  0 
 2.209988e-03  -1.488693e-03  0 
 2.440576e-04  -2.561123e-04  0 
 1.358895e-03  -8.158943e-04  0 
 1.132108e-03  -5.571171e-04  0 
 1.534221e-03  -7.334739e-04  0 
 1.798218e-03  -8.922877e-04  0 
 7.917370e-04  -4.324403e-04  0 
 6.971729e-04  -1.070001e-03  0 
 8.981852e-04  -1.233579e-03  0 
 3.527639e-04  -6.020504e-04  0 
 6.760267e-04  -9.216277e-04  0 
 5.033750e-04  -7.772608e-04  0 
 1.181440e-03  -1.329094e-03  0 
 1.280109e-03  -1.547050e-03  0 
 1.419751e-03  -1.097581e-03  0 
 1.726424e-03  -1.161958e-03  0 
 1.492681e-03  -1.415230e-03  0 
 1.804309e-03  -1.514784e-03  0 
 2.017328e-03  -1.188001e-03  0 
 1.083927e-03  -1.040990e-03  0 
VECTORS displacement_ITER11 FLOAT
 5.846948e-04  -5.660720e-04  0 
 2.213318e-03  -8.965931e-04  0 
 3.450402e-04  -2.905794e-04  0 
 1.899703e-04  -3.742944e-04  0 
 1.635340e-03  -1.255264e-03  0 
 1.254848e-03  -7.688766e-04  0 
 1.621157e-03  -8.732200e-04  0 
 1.924143e-03  -8.971086e-04  0 
 8.398316e-04  -1.115280e-03  0 
 1.009128e-03  -1.493641e-03  0 
 2.212489e-03  -1.190737e-03  0 
 2.209027e-03  -1.487780e-03  0 
 2.438287e-04  -2.558455e-04  0 
 1.354379e-03  -8.303307e-04  0 
 1.132638e-03  -5.460993e-04  0 
 1.532574e-03  -7.308617e-04  0 
 1.794932e-03  -8.941614e-04  0 
 7.919699e-04  -4.258303e-04  0 
 7.020669e-04  -1.077588e-03  0 
 9.015046e-04  -1.249466e-03  0 
 3.595933e-04  -6.111752e-04  0 
 6.773084e-04  -9.429810e-04  0 
 5.061567e-04  -7.813177e-04  0 
 1.180020e-03  -1.327807e-03  0 
 1.278698e-03  -1.545942e-03  0 
 1.418396e-03  -1.096275e-03  0 
 1.725151e-03  -1.160731e-03  0 
 1.491404e-03  -1.414054e-03  0 
 1.803011e-03  -1.513619e-03  0 
 2.016127e-03  -1.186750e-03  0 
 1.082558e-03  -1.039664e-03  0 
VECTORS displacement_ITER12 FLOAT
 5.845792e-04  -5.656997e-04  0 
 2.214080e-03  -8.957090e-04  0 
 3.448387e-04  -2.903668e-04  0 
 1.897305e-04  -3.739079e-04  0 
 1.639772e-03  -1.248129e-03  0 
 1.254651e-03  -7.683926e-04  0 
 1.621120e-03  -8.725140e-04  0 
 1.924470e-03  -8.962470e-04  0 
 8.397100e-04  -1.114818e-03  0 
 1.009107e-03  -1.492901e-03  0 
 2.213274e-03  -1.190298e-03  0 
 2.209863e-03  -1.487777e-03  0 
 2.436279e-04  -2.553588e-04  0 
 1.352224e-03  -8.247660e-04  0 
 1.132433e-03  -5.468018e-04  0 
 1.532318e-03  -7.282976e-04  0 
 1.794464e-03  -8.922244e-04  0 
 7.925712e-04  -4.288871e-04  0 
 7.040002e-04  -1.077949e-03  0 
 9.050097e-04  -1.247954e-03  0 
 3.633017e-04  -6.123623e-04  0 
 6.822785e-04  -9.429808e-04  0 
 5.069746e-04  -7.820602e-04  0 
 1.179789e-03  -1.327373e-03  0 
 1.278535e-03  -1.545559e-03  0 
 1.418183e-03  -1.095802e-03  0 
 1.725170e-03  -1.160242e-03  0 
 1.491211e-03  -1.413749e-03  0 
 1.803160e-03  -1.513585e-03  0 
 2.016593e-03  -1.186279e-03  0 
 1.082352e-03  -1.039222e-03  0 
VECTORS displacement_ITER13 FLOAT
 5.845654e-04  -5.657441e-04  0 
 2.213788e-03  -8.959105e-04  0 
 3.448689e-04  -2.903684e-04  0 
 1.897957e-04  -3.739762e-04  0 
 1.638884e-03  -1.249458e-03  0 
 1.254685e-03  -7.684690e-04  0 
 1.621086e-03  -8.727111e-04  0 
 1.924320e-03  -8.964795e-04  0 
 8.396762e-04  -1.114922e-03  0 
 1.009009e-03  -1.493118e-03  0 
 2.212995e-03  -1.190393e-03  0 
 2.209596e-03  -1.487794e-03  0 
 2.436754e-04  -2.554669e-04  0 
 1.353565e-03  -8.264876e-04  0 
 1.132112e-03  -5.468413e-04  0 
 1.532205e-03  -7.278844e-04  0 
 1.794823e-03  -8.923605e-04  0 
 7.922531e-04  -4.309771e-04  0 
 7.039936e-04  -1.077918e-03  0 
 9.050468e-04  -1.248861e-03  0 
 3.602003e-04  -6.090566e-04  0 
 6.814875e-04  -9.413362e-04  0 
 5.067773e-04  -7.811655e-04  0 
 1.179813e-03  -1.327462e-03  0 
 1.278549e-03  -1.545710e-03  0 
 1.418240e-03  -1.095888e-03  0 
 1.725114e-03  -1.160373e-03  0 
 1.491297e-03  -1.413790e-03  0 
 1.803010e-03  -1.513535e-03  0 
 2.016374e-03  -1.186363e-03  0 
 1.082375e-03  -1.039296e-03  0 
VECTORS displacement_ITER14 FLOAT
 5.845665e-04  -5.657504e-04  0 
 2.213793e-03  -8.959200e-04  0 
 3.448717e-04  -2.903771e-04  0 
 1.898069e-04  -3.739858e-04  0 
 1.638741e-03  -1.249609e-03  0 
 1.254684e-03  -7.684742e-04  0 
 1.621083e-03  -8.727155e-04  0 
 1.924319e-03  -8.964841e-04  0 
 8.396774e-04  -1.114924e-03  0 
 1.009011e-03  -1.493118e-03  0 
 2.212997e-03  -1.190403e-03  0 
 2.209594e-03  -1.487802e-03  0 
 2.436826e-04  -2.554785e-04  0 
 1.353613e-03  -8.265353e-04  0 
 1.132322e-03  -5.467497e-04  0 
 1.532137e-03  -7.278723e-04  0 
 1.794843e-03  -8.923561e-04  0 
 7.921297e-04  -4.309874e-04  0 
 7.039991e-04  -1.077721e-03  0 
 9.047370e-04  -1.249178e-03  0 
 3.606271e-04  -6.085015e-04  0 
 6.814953e-04  -9.413180e-04  0 
 5.067370e-04  -7.810619e-04  0 
 1.179812e-03  -1.327464e-03  0 
 1.278546e-03  -1.545711e-03  0 
 1.418238e-03  -1.095892e-03  0 
 1.725112e-03  -1.160378e-03  0 
 1.491295e-03  -1.413789e-03  0 
 1.803015e-03  -1.513553e-03  0 
 2.016379e-03  -1.186375e-03  0 
 1.082374e-03  -1.039300e-03  0 
CELL_DATA 42
TENSORS element_stresses FLOAT
 7.737222e-01  4.675802e-02  0 
 4.675802e-02  -6.168567e-01  0 
 0  0  0 

 2.991632e-01  2.983342e-01  0 
 2.983342e-01  -6.773091e-01  0 
 0  0  0 

 1.551683e-03  1.281116e-04  0 
 1.281116e-04  -2.124308e-04  0 
 0  0  0 

 1.666282e-03  -5.611222e-05  0 
 -5.611222e-05  8.291928e-05  0 
 0  0  0 

 1.512629e-03  2.389602e-04  0 
 2.389602e-04  3.587142e-04  0 
 0  0  0 

 2.094805e-03  1.399109e-03  0 
 1.399109e-03  -6.846785e-04  0 
 0  0  0 

 1.621248e-03  8.708390e-04  0 
 8.708390e-04  4.886308e-04  0 
 0  0  0 

 1.814573e-03  4.213189e-04  0 
 4.213189e-04  -1.495190e-03  0 
 0  0  0 

 9.863510e-04  8.051566e-04  0 
 8.051566e-04  9.190594e-05  0 
 0  0  0 

 1.417014e-03  7.111802e-04  0 
 7.111802e-04  -3.857910e-04  0 
 0  0  0 

 1.355376e-03  5.344681e-04  0 
 5.344681e-04  -3.523138e-04  0 
 0  0  0 

 2.036085e-03  7.040762e-04  0 
 7.040762e-04  -1.778847e-04  0 
 0  0  0 

 1.880157e-03  1.286745e-04  0 
 1.286745e-04  -2.174373e-04  0 
 0  0  0 

 4.736730e-04  -4.154225e-04  0 
 -4.154225e-04  -6.788733e-04  0 
 0  0  0 

 1.042683e-03  -5.699395e-04  0 
 -5.699395e-04  -7.713732e-04  0 
 0  0  0 

 1.003361e-03  -4.594206e-04  0 
 -4.594206e-04  -1.004205e-03  0 
 0  0  0 

 1.221630e-03  -5.904743e-04  0 
 -5.904743e-04  -1.040053e-03  0 
 0  0  0 

 1.055391e-03  -4.737037e-04  0 
 -4.737037e-04  -4.504407e-04  0 
 0  0  0 

 1.146384e-03  -4.649495e-04  0 
 -4.649495e-04  -6.181192e-04  0 
 0  0  0 

 8.679218e-04  -5.975371e-04  0 
 -5.975371e-04  -5.084052e-04  0 
 0  0  0 

 1.283718e-03  -7.889702e-04  0 
 -7.889702e-04  -7.831798e-04  0 
 0  0  0 

 1.023147e-03  -7.480508e-04  0 
 -7.480508e-04  -8.412268e-04  0 
 0  0  0 

 5.640185e-01  8.054668e-02  0 
 8.054668e-02  -3.777218e-01  0 
 0  0  0 

 1.944467e-01  4.876711e-03  0 
 4.876711e-03  -1.754127e-01  0 
 0  0  0 

 2.374842e-01  6.588845e-02  0 
 6.588845e-02  1.016761e-01  0 
 0  0  0 

 5.026550e-02  -1.664393e-01  0 
 -1.664393e-01  -4.018856e-01  0 
 0  0  0 

 -3.112383e-03  -6.093857e-02  0 
 -6.093857e-02  -9.600810e-02  0 
 0  0  0 

 -1.132925e-02  9.520013e-03  0 
 9.520013e-03  7.880302e-02  0 
 0  0  0 

 -1.306145e-02  -1.726701e-02  0 
 -1.726701e-02  -1.662087e-03  0 
 0  0  0 

 -1.591857e-03  -4.849068e-03  0 
 -4.849068e-03  5.307281e-03  0 
 0  0  0 

 3.571173e-01  2.689310e-01  0 
 2.689310e-01  -7.037600e-01  0 
 0  0  0 

 1.628219e-01  1.652392e-01  0 
 1.652392e-01  -4.776839e-01  0 
 0  0  0 

 8.110771e-01  3.426445e-02  0 
 3.426445e-02  -6.978875e-01  0 
 0  0  0 

 -3.943217e-03  -2.236704e-02  0 
 -2.236704e-02  3.338328e-02  0 
 0  0  0 

 -2.896187e-02  -5.418445e-02  0 
 -5.418445e-02  -8.829560e-02  0 
 0  0  0 

 3.038894e-01  1.040627e-01  0 
 1.040627e-01  -1.742549e-02  0 
 0  0  0 

 -7.247392e-03  -2.964867e-02  0 
 -2.964867e-02  -2.532904e-02  0 
 0  0  0 

 -7.638434e-04  -8.739584e-02  0 
 -8.739584e-02  -9.446178e-03  0 
 0  0  0 

 -3.008406e-02  -3.047657e-02  0 
 -3.047657e-02  1.257228e-01  0 
 0  0  0 

 -1.295283e-02  -1.361908e-02  0 
 -1.361908e-02  2.193915e-03  0 
 0  0  0 

 -2.077363e-02  -1.191676e-02  0 
 -1.191676e-02  4.151590e-02  0 
 0  0  0 

 -4.866242e-02  -4.333139e-02  0 
 -4.333139e-02  2.369064e-02  0 
 0  0  0 

TENSORS element_stresses FLOAT
 7.737222e-01  4.675802e-02  0 
 4.675802e-02  -6.168567e-01  0 
 0  0  0 

 2.991632e-01  2.983342e-01  0 
 2.983342e-01  -6.773091e-01  0 
 0  0  0 

 1.551683e-03  1.281116e-04  0 
 1.281116e-04  -2.124308e-04  0 
 0  0  0 

 1.666282e-03  -5.611222e-05  0 
 -5.611222e-05  8.291928e-05  0 
 0  0  0 

 1.512629e-03  2.389602e-04  0 
 2.389602e-04  3.587142e-04  0 
 0  0  0 

 2.094805e-03  1.399109e-03  0 
 1.399109e-03  -6.846785e-04  0 
 0  0  0 

 1.621248e-03  8.708390e-04  0 
 8.708390e-04  4.886308e-04  0 
 0  0  0 

 1.814573e-03  4.213189e-04  0 
 4.213189e-04  -1.495190e-03  0 
 0  0  0 

 9.863510e-04  8.051566e-04  0 
 8.051566e-04  9.190594e-05  0 
 0  0  0 

 1.417014e-03  7.111802e-04  0 
 7.111802e-04  -3.857910e-04  0 
 0  0  0 

 1.355376e-03  5.344681e-04  0 
 5.344681e-04  -3.523138e-04  0 
 0  0  0 

 2.036085e-03  7.040762e-04  0 
 7.040762e-04  -1.778847e-04  0 
 0  0  0 

 1.880157e-03  1.286745e-04  0 
 1.286745e-04  -2.174373e-04  0 
 0  0  0 

 4.736730e-04  -4.154225e-04  0 
 -4.154225e-04  -6.788733e-04  0 
 0  0  0 

 1.042683e-03  -5.699395e-04  0 
 -5.699395e-04  -7.713732e-04  0 
 0  0  0 

 1.003361e-03  -4.594206e-04  0 
 -4.594206e-04  -1.004205e-03  0 
 0  0  0 

 1.221630e-03  -5.904743e-04  0 
 -5.904743e-04  -1.040053e-03  0 
 0  0  0 

 1.055391e-03  -4.737037e-04  0 
 -4.737037e-04  -4.504407e-04  0 
 0  0  0 

 1.146384e-03  -4.649495e-04  0 
 -4.649495e-04  -6.181192e-04  0 
 0  0  0 

 8.679218e-04  -5.975371e-04  0 
 -5.975371e-04  -5.084052e-04  0 
 0  0  0 

 1.283718e-03  -7.889702e-04  0 
 -7.889702e-04  -7.831798e-04  0 
 0  0  0 

 1.023147e-03  -7.480508e-04  0 
 -7.480508e-04  -8.412268e-04  0 
 0  0  0 

 5.640185e-01  8.054668e-02  0 
 8.054668e-02  -3.777218e-01  0 
 0  0  0 

 1.944467e-01  4.876711e-03  0 
 4.876711e-03  -1.754127e-01  0 
 0  0  0 

 2.374842e-01  6.588845e-02  0 
 6.588845e-02  1.016761e-01  0 
 0  0  0 

 5.026550e-02  -1.664393e-01  0 
 -1.664393e-01  -4.018856e-01  0 
 0  0  0 

 -3.112383e-03  -6.093857e-02  0 
 -6.093857e-02  -9.600810e-02  0 
 0  0  0 

 -1.132925e-02  9.520013e-03  0 
 9.520013e-03  7.880302e-02  0 
 0  0  0 

 -1.306145e-02  -1.726701e-02  0 
 -1.726701e-02  -1.662087e-03  0 
 0  0  0 

 -1.591857e-03  -4.849068e-03  0 
 -4.849068e-03  5.307281e-03  0 
 0  0  0 

 3.571173e-01  2.689310e-01  0 
 2.689310e-01  -7.037600e-01  0 
 0  0  0 

 1.628219e-01  1.652392e-01  0 
 1.652392e-01  -4.776839e-01  0 
 0  0  0 

 8.110771e-01  3.426445e-02  0 
 3.426445e-02  -6.978875e-01  0 
 0  0  0 

 -3.943217e-03  -2.236704e-02  0 
 -2.236704e-02  3.338328e-02  0 
 0  0  0 

 -2.896187e-02  -5.418445e-02  0 
 -5.418445e-02  -8.829560e-02  0 
 0  0  0 

 3.038894e-01  1.040627e-01  0 
 1.040627e-01  -1.742549e-02  0 
 0  0  0 

 -7.247392e-03  -2.964867e-02  0 
 -2.964867e-02  -2.532904e-02  0 
 0  0  0 

 -7.638434e-04  -8.739584e-02  0 
 -8.739584e-02  -9.446178e-03  0 
 0  0  0 

 -3.008406e-02  -3.047657e-02  0 
 -3.047657e-02  1.257228e-01  0 
 0  0  0 

 -1.295283e-02  -1.361908e-02  0 
 -1.361908e-02  2.193915e-03  0 
 0  0  0 

 -2.077363e-02  -1.191676e-02  0 
 -1.191676e-02  4.151590e-02  0 
 0  0  0 

 -4.866242e-02  -4.333139e-02  0 
 -4.333139e-02  2.369064e-02  0 
 0  0  0 

