# vtk DataFile Version 3.1
this is an vtk file created by FEMAC
ASCII
DATASET UNSTRUCTURED_GRID
POINTS 32 FLOAT
0.000000 4.000000 0.000000
1.000000 4.000000 0.000000
0.250000 4.000000 0.000000
0.500000 4.000000 0.000000
0.750000 4.000000 0.000000
0.000000 3.500000 0.000000
0.000000 3.750000 0.000000
0.000000 4.250000 0.000000
0.000000 4.500000 0.000000
1.000000 4.250000 0.000000
1.000000 4.500000 0.000000
1.000000 4.750000 0.000000
0.272476 3.537430 0.000000
0.660302 3.785301 0.000000
0.825570 3.361866 0.000000
0.825957 3.628272 0.000000
0.594871 3.497465 0.000000
0.400442 3.782533 0.000000
0.847252 3.832715 0.000000
0.153820 3.761660 0.000000
0.272476 4.537430 0.000000
0.660045 4.212404 0.000000
0.162952 4.171693 0.000000
0.825570 4.361866 0.000000
0.825957 4.628272 0.000000
0.594871 4.497465 0.000000
0.372389 4.253823 0.000000
0.165804 4.339408 0.000000
0.847252 4.832715 0.000000
0.847123 4.164854 0.000000
1.175045 4.338476 0.000000
1.200764 4.609959 0.000000
CELLS 43 172 
3 3 13  4
3 17 13  3
3 16 17 12
3 16 13 17
3 2 17  3
3 16 15 13
3 14 15 16
3 4 18  1
3 18  4 13
3 13 15 18
3 19  2  0
3 6 19  0
3 5 19  6
3 17 19 12
3 19 17  2
3 5 12 19
3 21  3  4
3 2 22  0
3 22  7  0
3 10 24 23
3 25 21 23
3 21 26  3
3 26 25 20
3 21 25 26
3 23  9 10
3 11 24 10
3 26  2  3
3 22  2 26
3 23 24 25
3 22 27  7
3 29  4  1
3 9 29  1
3 4 29 21
3 27 26 20
3 22 26 27
3 28 24 11
3 23 29  9
3 23 21 29
3 27  8  7
3 8 27 20
3 30 10  9
3 31 11 10
3 30 31 10
CELL_TYPES 43
5 5 5 5 5 5 5 5 5 5 5 5 5 5 5 5 5 5 5 5 5 5 5 5 5 5 5 5 5 5 5 5 5 5 5 5 5 5 5 5 5 5 5 
POINT_DATA 32
VECTORS displacement_ITER1 FLOAT
 0  0  0 
 -3.741601e-04  -1.373551e-03  0 
 -1.874788e-04  -1.839541e-04  0 
 -3.069039e-04  -4.981255e-04  0 
 -3.650236e-04  -9.370561e-04  0 
 0  0  0 
 0  0  0 
 0  0  0 
 0  0  0 
 4.944539e-05  -1.407185e-03  0 
 5.950411e-04  -1.570656e-03  0 
 1.371963e-03  -1.823924e-03  0 
 1.100400e-03  -1.300026e-04  0 
 4.933228e-03  -5.393472e-03  0 
 -4.371072e-03  -2.506964e-02  0 
 5.278235e-03  -1.368043e-02  0 
 2.735257e-03  -5.192112e-03  0 
 2.809892e-03  -1.926096e-03  0 
 4.119690e-03  -5.893202e-03  0 
 8.639160e-04  -5.350981e-04  0 
 2.853498e-04  -2.778354e-04  0 
 -2.531771e-05  -7.424805e-04  0 
 -9.806702e-06  -2.517659e-05  0 
 2.344464e-04  -1.074641e-03  0 
 8.850440e-04  -1.167010e-03  0 
 4.546095e-04  -6.176447e-04  0 
 3.951884e-05  -2.243970e-04  0 
 3.561945e-05  -3.609141e-05  0 
 1.716379e-03  -1.224851e-03  0 
 -1.053235e-04  -1.103838e-03  0 
 2.848085e-03  -1.378223e-02  0 
 1.694746e-02  -3.153729e-02  0 
VECTORS displacement_ITER2 FLOAT
 0  0  0 
 -3.262065e-04  -1.280969e-03  0 
 -1.719732e-04  -1.692137e-04  0 
 -2.797935e-04  -4.629673e-04  0 
 -3.278024e-04  -8.729282e-04  0 
 0  0  0 
 0  0  0 
 0  0  0 
 0  0  0 
 6.038438e-05  -1.317402e-03  0 
 5.698150e-04  -1.473536e-03  0 
 1.299570e-03  -1.718048e-03  0 
 1.979748e-03  2.710040e-04  0 
 5.100440e-03  -3.816598e-03  0 
 4.166829e-03  -1.448808e-02  0 
 7.386956e-03  -8.266336e-03  0 
 5.467953e-03  -3.018469e-03  0 
 2.862425e-03  -1.837684e-03  0 
 4.989064e-03  -3.777203e-03  0 
 9.111555e-04  -6.931389e-04  0 
 2.715706e-04  -2.647480e-04  0 
 -1.344699e-05  -6.964322e-04  0 
 -7.518856e-06  -2.318341e-05  0 
 2.311500e-04  -1.008811e-03  0 
 8.404839e-04  -1.096720e-03  0 
 4.348701e-04  -5.829351e-04  0 
 4.210616e-05  -2.108070e-04  0 
 3.507890e-05  -3.467602e-05  0 
 1.627196e-03  -1.151180e-03  0 
 -8.413881e-05  -1.034448e-03  0 
 3.221807e-03  -1.145981e-02  0 
 1.651576e-02  -2.762949e-02  0 
VECTORS displacement_ITER3 FLOAT
 0  0  0 
 -2.918097e-04  -1.279087e-03  0 
 -1.686415e-04  -1.686523e-04  0 
 -2.701716e-04  -4.618758e-04  0 
 -3.089022e-04  -8.701764e-04  0 
 0  0  0 
 0  0  0 
 0  0  0 
 0  0  0 
 7.551090e-05  -1.316419e-03  0 
 5.740706e-04  -1.464376e-03  0 
 1.275293e-03  -1.700818e-03  0 
 3.099775e-03  7.163628e-04  0 
 5.566597e-03  -2.285960e-03  0 
 1.435497e-02  -3.270831e-03  0 
 1.020506e-02  -2.642517e-03  0 
 8.927189e-03  -8.209167e-04  0 
 3.092201e-03  -1.882458e-03  0 
 6.225966e-03  -1.636297e-03  0 
 1.021205e-03  -9.268180e-04  0 
 2.759788e-04  -2.720293e-04  0 
 -5.104512e-07  -7.017952e-04  0 
 -6.082290e-06  -2.462700e-05  0 
 2.431603e-04  -1.012861e-03  0 
 8.357679e-04  -1.099513e-03  0 
 4.407288e-04  -5.947224e-04  0 
 4.706967e-05  -2.167141e-04  0 
 3.691481e-05  -3.744120e-05  0 
 1.592155e-03  -1.156168e-03  0 
 -6.523626e-05  -1.038987e-03  0 
 3.831584e-03  -9.254228e-03  0 
 1.641017e-02  -2.360562e-02  0 
VECTORS displacement_ITER4 FLOAT
 0  0  0 
 -2.515145e-04  -1.232194e-03  0 
 -1.595329e-04  -1.617982e-04  0 
 -2.516549e-04  -4.440837e-04  0 
 -2.807036e-04  -8.359655e-04  0 
 0  0  0 
 0  0  0 
 0  0  0 
 0  0  0 
 8.719188e-05  -1.266615e-03  0 
 5.557106e-04  -1.403080e-03  0 
 1.209323e-03  -1.625296e-03  0 
 3.541402e-03  9.448587e-04  0 
 5.476472e-03  -1.197787e-03  0 
 1.917091e-02  3.619367e-03  0 
 1.119307e-02  9.396844e-04  0 
 1.032976e-02  6.424006e-04  0 
 3.002619e-03  -1.755609e-03  0 
 6.584153e-03  -2.328685e-04  0 
 1.009355e-03  -9.959748e-04  0 
 2.698685e-04  -2.686538e-04  0 
 1.115522e-05  -6.811690e-04  0 
 -4.591833e-06  -2.495319e-05  0 
 2.447445e-04  -9.798453e-04  0 
 8.005482e-04  -1.061092e-03  0 
 4.298740e-04  -5.835869e-04  0 
 4.986367e-05  -2.141338e-04  0 
 3.723258e-05  -3.855198e-05  0 
 1.507535e-03  -1.115657e-03  0 
 -4.540035e-05  -1.004754e-03  0 
 4.002787e-03  -7.539825e-03  0 
 1.561318e-02  -2.042030e-02  0 
VECTORS displacement_ITER5 FLOAT
 0  0  0 
 -1.643510e-04  -1.099701e-03  0 
 -1.363357e-04  -1.433440e-04  0 
 -2.063544e-04  -3.946076e-04  0 
 -2.151715e-04  -7.401432e-04  0 
 0  0  0 
 0  0  0 
 0  0  0 
 0  0  0 
 1.072923e-04  -1.122341e-03  0 
 4.949139e-04  -1.230411e-03  0 
 1.030118e-03  -1.415322e-03  0 
 3.665611e-03  1.116540e-03  0 
 4.692535e-03  3.370140e-04  0 
 2.289750e-02  1.203851e-02  0 
 1.110097e-02  5.447766e-03  0 
 1.084538e-02  2.480368e-03  0 
 2.507145e-03  -1.380428e-03  0 
 6.265491e-03  1.579638e-03  0 
 8.651565e-04  -9.662952e-04  0 
 2.479775e-04  -2.529128e-04  0 
 3.354490e-05  -6.178925e-04  0 
 -1.687417e-06  -2.518504e-05  0 
 2.377132e-04  -8.809303e-04  0 
 6.973534e-04  -9.461243e-04  0 
 3.916852e-04  -5.424143e-04  0 
 5.326738e-05  -2.028981e-04  0 
 3.647128e-05  -3.983150e-05  0 
 1.280994e-03  -9.922583e-04  0 
 -4.180157e-06  -9.022842e-04  0 
 3.752793e-03  -4.701538e-03  0 
 1.301956e-02  -1.483727e-02  0 
VECTORS displacement_ITER6 FLOAT
 0  0  0 
 -9.883085e-05  -9.833604e-04  0 
 -1.174804e-04  -1.280141e-04  0 
 -1.705417e-04  -3.524361e-04  0 
 -1.647490e-04  -6.575899e-04  0 
 0  0  0 
 0  0  0 
 0  0  0 
 0  0  0 
 1.163933e-04  -9.952138e-04  0 
 4.394015e-04  -1.082724e-03  0 
 8.811517e-04  -1.239693e-03  0 
 3.635498e-03  1.227149e-03  0 
 4.085119e-03  1.370720e-03  0 
 2.432074e-02  1.713474e-02  0 
 1.075660e-02  8.301703e-03  0 
 1.083059e-02  3.751556e-03  0 
 2.106649e-03  -1.052550e-03  0 
 5.957190e-03  2.763297e-03  0 
 7.407765e-04  -9.064344e-04  0 
 2.265518e-04  -2.361352e-04  0 
 4.755029e-05  -5.609136e-04  0 
 2.154340e-07  -2.513454e-05  0 
 2.252656e-04  -7.920592e-04  0 
 6.075920e-04  -8.447670e-04  0 
 3.545439e-04  -5.014539e-04  0 
 5.402869e-05  -1.913252e-04  0 
 3.500181e-05  -4.009903e-05  0 
 1.095349e-03  -8.843459e-04  0 
 2.388383e-05  -8.114541e-04  0 
 3.593915e-03  -2.905276e-03  0 
 1.122611e-02  -1.141702e-02  0 
VECTORS displacement_ITER7 FLOAT
 0  0  0 
 -1.382067e-05  -8.100708e-04  0 
 -9.002288e-05  -1.037121e-04  0 
 -1.205162e-04  -2.885136e-04  0 
 -9.667671e-05  -5.352748e-04  0 
 0  0  0 
 0  0  0 
 0  0  0 
 0  0  0 
 1.264459e-04  -8.090893e-04  0 
 3.627666e-04  -8.725517e-04  0 
 6.867107e-04  -9.964979e-04  0 
 3.286733e-03  1.289509e-03  0 
 3.046164e-03  2.557237e-03  0 
 2.362949e-02  2.190729e-02  0 
 9.490606e-03  1.118880e-02  0 
 9.865994e-03  5.165878e-03  0 
 1.429560e-03  -5.220606e-04  0 
 5.186369e-03  4.017694e-03  0 
 5.186880e-04  -7.469556e-04  0 
 1.942902e-04  -2.085044e-04  0 
 6.471624e-05  -4.730831e-04  0 
 2.941652e-06  -2.356734e-05  0 
 2.053483e-04  -6.590180e-04  0 
 4.862741e-04  -6.954841e-04  0 
 3.011393e-04  -4.346927e-04  0 
 5.450241e-05  -1.698423e-04  0 
 3.248331e-05  -3.879470e-05  0 
 8.554292e-04  -7.249992e-04  0 
 5.934006e-05  -6.748062e-04  0 
 3.248397e-03  -6.909298e-04  0 
 8.977012e-03  -7.169116e-03  0 
VECTORS displacement_ITER8 FLOAT
 0  0  0 
 2.935392e-05  -7.441370e-04  0 
 -7.863276e-05  -9.500388e-05  0 
 -9.796129e-05  -2.644460e-04  0 
 -6.428269e-05  -4.876031e-04  0 
 0  0  0 
 0  0  0 
 0  0  0 
 0  0  0 
 1.334216e-04  -7.332592e-04  0 
 3.274655e-04  -7.819005e-04  0 
 5.900751e-04  -8.856290e-04  0 
 2.818175e-03  1.173429e-03  0 
 2.355010e-03  2.724478e-03  0 
 2.091021e-02  2.147348e-02  0 
 8.073824e-03  1.114428e-02  0 
 8.498868e-03  5.191183e-03  0 
 1.023628e-03  -2.804837e-04  0 
 4.400192e-03  4.054152e-03  0 
 3.796384e-04  -6.176323e-04  0 
 1.821126e-04  -1.999775e-04  0 
 7.485046e-05  -4.413114e-04  0 
 4.177052e-06  -2.402953e-05  0 
 1.987507e-04  -6.074100e-04  0 
 4.291400e-04  -6.345006e-04  0 
 2.790817e-04  -4.130298e-04  0 
 5.558316e-05  -1.648303e-04  0 
 3.187963e-05  -3.967675e-05  0 
 7.341795e-04  -6.590916e-04  0 
 7.879473e-05  -6.228063e-04  0 
 2.844966e-03  1.461467e-04  0 
 7.488886e-03  -4.971670e-03  0 
VECTORS displacement_ITER9 FLOAT
 0  0  0 
 9.227787e-05  -6.203738e-04  0 
 -5.965758e-05  -7.943719e-05  0 
 -6.263408e-05  -2.211824e-04  0 
 -1.570830e-05  -4.019940e-04  0 
 0  0  0 
 0  0  0 
 0  0  0 
 0  0  0 
 1.354685e-04  -5.973182e-04  0 
 2.657741e-04  -6.270048e-04  0 
 4.374033e-04  -7.031417e-04  0 
 2.318939e-03  1.091246e-03  0 
 1.544025e-03  3.108968e-03  0 
 1.811248e-02  2.184531e-02  0 
 6.536240e-03  1.162089e-02  0 
 7.038210e-03  5.507151e-03  0 
 5.289736e-04  5.860513e-05  0 
 3.553891e-03  4.334500e-03  0 
 2.105954e-04  -4.615065e-04  0 
 1.576021e-04  -1.800258e-04  0 
 8.548564e-05  -3.802134e-04  0 
 5.757151e-06  -2.387645e-05  0 
 1.800504e-04  -5.110860e-04  0 
 3.339164e-04  -5.251564e-04  0 
 2.365835e-04  -3.655906e-04  0 
 5.488774e-05  -1.515603e-04  0 
 2.977828e-05  -3.946764e-05  0 
 5.452842e-04  -5.426408e-04  0 
 1.023317e-04  -5.263531e-04  0 
 2.431989e-03  1.286207e-03  0 
 5.593875e-03  -2.277572e-03  0 
VECTORS displacement_ITER10 FLOAT
 0  0  0 
 1.245794e-04  -5.656365e-04  0 
 -5.213551e-05  -7.489660e-05  0 
 -4.717095e-05  -2.047610e-04  0 
 6.611830e-06  -3.655276e-04  0 
 0  0  0 
 0  0  0 
 0  0  0 
 0  0  0 
 1.301490e-04  -5.318190e-04  0 
 2.268170e-04  -5.487071e-04  0 
 3.440660e-04  -6.058418e-04  0 
 1.612683e-03  8.844478e-04  0 
 8.566722e-04  2.843643e-03  0 
 1.281716e-02  1.832315e-02  0 
 4.587248e-03  1.005572e-02  0 
 4.913850e-03  4.989400e-03  0 
 1.228563e-04  2.933230e-04  0 
 2.593454e-03  3.795652e-03  0 
 6.077233e-05  -2.831136e-04  0 
 1.445204e-04  -1.709564e-04  0 
 8.848651e-05  -3.552544e-04  0 
 5.864069e-06  -2.521044e-05  0 
 1.657219e-04  -4.662204e-04  0 
 2.763719e-04  -4.716760e-04  0 
 2.110284e-04  -3.456190e-04  0 
 5.306012e-05  -1.489045e-04  0 
 2.839526e-05  -4.049314e-05  0 
 4.297579e-04  -4.856324e-04  0 
 1.114029e-04  -4.846955e-04  0 
 2.004891e-03  1.355445e-03  0 
 4.235661e-03  -1.446509e-03  0 
VECTORS displacement_ITER11 FLOAT
 0  0  0 
 1.495050e-04  -5.287318e-04  0 
 -4.692057e-05  -7.202956e-05  0 
 -3.614448e-05  -1.942399e-04  0 
 2.305696e-05  -3.414955e-04  0 
 0  0  0 
 0  0  0 
 0  0  0 
 0  0  0 
 1.270494e-04  -4.877639e-04  0 
 2.006103e-04  -4.961622e-04  0 
 2.801765e-04  -5.401896e-04  0 
 1.095271e-03  7.134526e-04  0 
 3.580958e-04  2.585870e-03  0 
 8.998757e-03  1.552292e-02  0 
 3.147625e-03  8.749125e-03  0 
 3.363822e-03  4.489162e-03  0 
 -1.572911e-04  4.335523e-04  0 
 1.862311e-03  3.328528e-03  0 
 -4.202373e-05  -1.595580e-04  0 
 1.360316e-04  -1.654946e-04  0 
 9.125932e-05  -3.394774e-04  0 
 6.030435e-06  -2.631841e-05  0 
 1.564281e-04  -4.367115e-04  0 
 2.374586e-04  -4.362571e-04  0 
 1.940826e-04  -3.331495e-04  0 
 5.219087e-05  -1.478610e-04  0 
 2.761357e-05  -4.148805e-05  0 
 3.499564e-04  -4.485401e-04  0 
 1.186819e-04  -4.576549e-04  0 
 1.641880e-03  1.428820e-03  0 
 3.180827e-03  -6.718126e-04  0 
VECTORS displacement_ITER12 FLOAT
 0  0  0 
 1.651453e-04  -5.181645e-04  0 
 -4.562893e-05  -7.309209e-05  0 
 -3.192478e-05  -1.940550e-04  0 
 3.093277e-05  -3.366132e-04  0 
 0  0  0 
 0  0  0 
 0  0  0 
 0  0  0 
 1.233393e-04  -4.722794e-04  0 
 1.871503e-04  -4.768422e-04  0 
 2.466668e-04  -5.136649e-04  0 
 7.476874e-04  5.538677e-04  0 
 1.372766e-04  2.144191e-03  0 
 6.190393e-03  1.238253e-02  0 
 2.210569e-03  7.130243e-03  0 
 2.313456e-03  3.763311e-03  0 
 -2.515341e-04  4.324501e-04  0 
 1.385331e-03  2.706324e-03  0 
 -8.020323e-05  -9.387704e-05  0 
 1.329610e-04  -1.650839e-04  0 
 9.243472e-05  -3.382594e-04  0 
 5.942570e-06  -2.791013e-05  0 
 1.509362e-04  -4.284745e-04  0 
 2.178862e-04  -4.251113e-04  0 
 1.859118e-04  -3.320422e-04  0 
 5.176890e-05  -1.509094e-04  0 
 2.742428e-05  -4.303544e-05  0 
 3.071488e-04  -4.386687e-04  0 
 1.221110e-04  -4.525603e-04  0 
 1.365273e-03  1.221479e-03  0 
 2.525150e-03  -3.591577e-04  0 
VECTORS displacement_ITER13 FLOAT
 0  0  0 
 1.757797e-04  -5.158557e-04  0 
 -4.588650e-05  -7.544031e-05  0 
 -3.089136e-05  -1.977695e-04  0 
 3.438522e-05  -3.389735e-04  0 
 0  0  0 
 0  0  0 
 0  0  0 
 0  0  0 
 1.176656e-04  -4.673026e-04  0 
 1.803034e-04  -4.732737e-04  0 
 2.326403e-04  -5.091254e-04  0 
 4.421106e-04  3.893954e-04  0 
 8.199115e-05  1.515671e-03  0 
 3.305501e-03  8.355223e-03  0 
 1.443658e-03  5.014159e-03  0 
 1.367281e-03  2.821356e-03  0 
 -2.413127e-04  3.624125e-04  0 
 1.028299e-03  1.883427e-03  0 
 -8.517889e-05  -4.563238e-05  0 
 1.315955e-04  -1.658027e-04  0 
 9.189012e-05  -3.418759e-04  0 
 5.744131e-06  -2.943800e-05  0 
 1.458306e-04  -4.277029e-04  0 
 2.090191e-04  -4.242175e-04  0 
 1.809791e-04  -3.333759e-04  0 
 5.131800e-05  -1.546081e-04  0 
 2.736574e-05  -4.446108e-05  0 
 2.888101e-04  -4.421048e-04  0 
 1.223715e-04  -4.552355e-04  0 
 1.160867e-03  7.434707e-04  0 
 2.312068e-03  -4.830653e-04  0 
VECTORS displacement_ITER14 FLOAT
 0  0  0 
 1.940390e-04  -4.912402e-04  0 
 -4.149023e-05  -7.224878e-05  0 
 -2.225804e-05  -1.899283e-04  0 
 4.726352e-05  -3.229475e-04  0 
 0  0  0 
 0  0  0 
 0  0  0 
 0  0  0 
 1.214145e-04  -4.416476e-04  0 
 1.713320e-04  -4.463842e-04  0 
 2.081489e-04  -4.790330e-04  0 
 2.628499e-04  2.990419e-04  0 
 -7.252888e-05  1.307661e-03  0 
 2.051864e-03  6.913344e-03  0 
 9.215328e-04  4.237336e-03  0 
 8.351392e-04  2.419580e-03  0 
 -3.001332e-04  3.577016e-04  0 
 7.287319e-04  1.584983e-03  0 
 -1.061916e-04  -1.268987e-05  0 
 1.280999e-04  -1.634963e-04  0 
 9.624344e-05  -3.317620e-04  0 
 6.448509e-06  -2.959201e-05  0 
 1.445783e-04  -4.111549e-04  0 
 1.939941e-04  -4.058358e-04  0 
 1.749500e-04  -3.261569e-04  0 
 5.245643e-05  -1.530193e-04  0 
 2.743722e-05  -4.489377e-05  0 
 2.573817e-04  -4.243343e-04  0 
 1.303369e-04  -4.379671e-04  0 
 9.421638e-04  8.213180e-04  0 
 1.872683e-03  8.730816e-05  0 
VECTORS displacement_ITER15 FLOAT
 0  0  0 
 2.122050e-04  -4.478446e-04  0 
 -3.592206e-05  -6.840221e-05  0 
 -1.234049e-05  -1.781956e-04  0 
 6.077306e-05  -2.972394e-04  0 
 0  0  0 
 0  0  0 
 0  0  0 
 0  0  0 
 1.179216e-04  -3.983714e-04  0 
 1.522058e-04  -4.029692e-04  0 
 1.684559e-04  -4.318806e-04  0 
 2.035511e-04  2.246512e-04  0 
 3.108143e-05  9.114416e-04  0 
 1.251410e-03  4.756774e-03  0 
 7.774649e-04  3.018694e-03  0 
 6.339599e-04  1.797726e-03  0 
 -1.924631e-04  2.513902e-04  0 
 6.492076e-04  1.112010e-03  0 
 -7.188959e-05  -1.590828e-05  0 
 1.193992e-04  -1.561369e-04  0 
 9.679166e-05  -3.128326e-04  0 
 6.779746e-06  -2.983075e-05  0 
 1.352316e-04  -3.806928e-04  0 
 1.665401e-04  -3.737099e-04  0 
 1.598016e-04  -3.090693e-04  0 
 5.137308e-05  -1.487390e-04  0 
 2.650232e-05  -4.474277e-05  0 
 2.084706e-04  -3.937055e-04  0 
 1.339999e-04  -4.073722e-04  0 
 8.099042e-04  4.840165e-04  0 
 1.540350e-03  -1.469541e-04  0 
VECTORS displacement_ITER16 FLOAT
 0  0  0 
 2.252431e-04  -4.181271e-04  0 
 -3.225895e-05  -6.652674e-05  0 
 -5.158029e-06  -1.707416e-04  0 
 7.077081e-05  -2.797015e-04  0 
 0  0  0 
 0  0  0 
 0  0  0 
 0  0  0 
 1.162127e-04  -3.679436e-04  0 
 1.342676e-04  -3.680300e-04  0 
 1.275099e-04  -3.884340e-04  0 
 -6.778747e-05  6.994733e-05  0 
 -6.160437e-05  3.725589e-04  0 
 -1.092444e-03  1.367732e-03  0 
 5.169707e-05  1.191346e-03  0 
 -1.967379e-04  9.260634e-04  0 
 -1.931960e-04  1.842881e-04  0 
 2.718505e-04  4.016913e-04  0 
 -7.741113e-05  2.588632e-05  0 
 1.130320e-04  -1.514150e-04  0 
 9.731826e-05  -3.004710e-04  0 
 6.825668e-06  -3.054257e-05  0 
 1.282893e-04  -3.598259e-04  0 
 1.406110e-04  -3.494187e-04  0 
 1.476721e-04  -2.990503e-04  0 
 5.020244e-05  -1.471649e-04  0 
 2.575674e-05  -4.509600e-05  0 
 1.569412e-04  -3.684942e-04  0 
 1.371428e-04  -3.861501e-04  0 
 5.246416e-04  -1.456708e-05  0 
 8.105008e-04  -5.604249e-04  0 
VECTORS displacement_ITER17 FLOAT
 0  0  0 
 2.268965e-04  -4.223387e-04  0 
 -3.318459e-05  -6.866988e-05  0 
 -5.873103e-06  -1.747002e-04  0 
 7.069487e-05  -2.849920e-04  0 
 0  0  0 
 0  0  0 
 0  0  0 
 0  0  0 
 1.162324e-04  -3.738477e-04  0 
 1.327279e-04  -3.718601e-04  0 
 1.218309e-04  -3.888045e-04  0 
 -2.297595e-04  -5.800420e-05  0 
 -2.996953e-05  -1.573822e-04  0 
 -2.665037e-03  -1.600941e-03  0 
 -3.551470e-04  -4.633509e-04  0 
 -6.973592e-04  1.087454e-04  0 
 -1.229815e-04  6.892694e-05  0 
 5.991188e-05  -2.628845e-04  0 
 -5.748482e-05  3.640558e-05  0 
 1.138802e-04  -1.532051e-04  0 
 9.721080e-05  -3.054417e-04  0 
 6.657061e-06  -3.151899e-05  0 
 1.282499e-04  -3.652911e-04  0 
 1.383525e-04  -3.540379e-04  0 
 1.476842e-04  -3.037705e-04  0 
 5.003125e-05  -1.502014e-04  0 
 2.587565e-05  -4.597957e-05  0 
 1.483039e-04  -3.738886e-04  0 
 1.371037e-04  -3.918439e-04  0 
 3.460192e-04  -4.941367e-04  0 
 4.916725e-04  -8.766624e-04  0 
VECTORS displacement_ITER18 FLOAT
 0  0  0 
 2.262900e-04  -4.340662e-04  0 
 -3.491774e-05  -7.105372e-05  0 
 -8.238049e-06  -1.804506e-04  0 
 6.851129e-05  -2.948404e-04  0 
 0  0  0 
 0  0  0 
 0  0  0 
 0  0  0 
 1.174629e-04  -3.883859e-04  0 
 1.372300e-04  -3.861570e-04  0 
 1.303394e-04  -4.032354e-04  0 
 -2.735094e-04  -1.242687e-04  0 
 3.860292e-05  -4.662851e-04  0 
 -3.177121e-03  -3.133015e-03  0 
 -4.547393e-04  -1.358610e-03  0 
 -8.337799e-04  -3.652552e-04  0 
 -4.856855e-05  -2.555203e-05  0 
 -2.025178e-06  -6.334520e-04  0 
 -3.331534e-05  2.704050e-05  0 
 1.167185e-04  -1.564062e-04  0 
 9.742195e-05  -3.137977e-04  0 
 6.578457e-06  -3.219502e-05  0 
 1.307693e-04  -3.767161e-04  0 
 1.446970e-04  -3.657519e-04  0 
 1.517071e-04  -3.112281e-04  0 
 5.047989e-05  -1.534964e-04  0 
 2.629822e-05  -4.673036e-05  0 
 1.577717e-04  -3.867840e-04  0 
 1.368345e-04  -4.034393e-04  0 
 2.635005e-04  -7.475861e-04  0 
 4.247688e-04  -9.872842e-04  0 
VECTORS displacement_ITER19 FLOAT
 0  0  0 
 2.271470e-04  -4.404152e-04  0 
 -3.602294e-05  -7.278899e-05  0 
 -9.665673e-06  -1.843776e-04  0 
 6.754533e-05  -3.010801e-04  0 
 0  0  0 
 0  0  0 
 0  0  0 
 0  0  0 
 1.182394e-04  -3.977533e-04  0 
 1.394463e-04  -3.952504e-04  0 
 1.355333e-04  -4.127007e-04  0 
 -2.173691e-04  -1.471292e-04  0 
 1.456565e-04  -6.250680e-04  0 
 -2.780534e-03  -3.612621e-03  0 
 -3.035165e-04  -1.719827e-03  0 
 -6.627067e-04  -6.218171e-04  0 
 4.265835e-05  -1.177813e-04  0 
 4.818482e-05  -7.975573e-04  0 
 -6.831958e-07  -1.632988e-06  0 
 1.183863e-04  -1.583797e-04  0 
 9.747101e-05  -3.193968e-04  0 
 6.515679e-06  -3.274969e-05  0 
 1.320999e-04  -3.842108e-04  0 
 1.480657e-04  -3.731645e-04  0 
 1.539293e-04  -3.161120e-04  0 
 5.069389e-05  -1.558317e-04  0 
 2.655911e-05  -4.728740e-05  0 
 1.639157e-04  -3.947520e-04  0 
 1.367351e-04  -4.109418e-04  0 
 2.181008e-04  -9.173946e-04  0 
 3.343883e-04  -1.189640e-03  0 
VECTORS displacement_ITER20 FLOAT
 0  0  0 
 2.316741e-04  -4.346983e-04  0 
 -3.516072e-05  -7.243768e-05  0 
 -7.983209e-06  -1.832555e-04  0 
 7.034265e-05  -2.981445e-04  0 
 0  0  0 
 0  0  0 
 0  0  0 
 0  0  0 
 1.190771e-04  -3.934263e-04  0 
 1.374100e-04  -3.908508e-04  0 
 1.324427e-04  -4.086465e-04  0 
 -8.960418e-05  -1.315912e-04  0 
 2.713967e-04  -6.459643e-04  0 
 -1.727612e-03  -3.222775e-03  0 
 2.388203e-05  -1.625126e-03  0 
 -2.732851e-04  -6.784987e-04  0 
 1.376566e-04  -1.949249e-04  0 
 1.797574e-04  -7.794255e-04  0 
 3.516938e-05  -4.073254e-05  0 
 1.175730e-04  -1.577689e-04  0 
 9.815983e-05  -3.178084e-04  0 
 6.664709e-06  -3.289676e-05  0 
 1.316475e-04  -3.815175e-04  0 
 1.451698e-04  -3.698582e-04  0 
 1.525737e-04  -3.147518e-04  0 
 5.086553e-05  -1.556877e-04  0 
 2.658077e-05  -4.741815e-05  0 
 1.607542e-04  -3.910095e-04  0 
 1.382534e-04  -4.079035e-04  0 
 2.101884e-04  -9.605766e-04  0 
 2.304818e-04  -1.304927e-03  0 
VECTORS displacement_ITER21 FLOAT
 0  0  0 
 2.390087e-04  -4.200332e-04  0 
 -3.264575e-05  -7.004075e-05  0 
 -3.909424e-06  -1.779844e-04  0 
 7.592725e-05  -2.883029e-04  0 
 0  0  0 
 0  0  0 
 0  0  0 
 0  0  0 
 1.202700e-04  -3.793466e-04  0 
 1.343463e-04  -3.784495e-04  0 
 1.295269e-04  -3.991366e-04  0 
 8.576199e-05  -8.241072e-05  0 
 4.153005e-04  -5.586946e-04  0 
 -2.926487e-04  -2.224733e-03  0 
 4.773788e-04  -1.190992e-03  0 
 2.568551e-04  -5.621623e-04  0 
 2.323427e-04  -2.506040e-04  0 
 3.822974e-04  -6.213231e-04  0 
 7.156936e-05  -8.364354e-05  0 
 1.151562e-04  -1.551181e-04  0 
 9.956526e-05  -3.105744e-04  0 
 7.096506e-06  -3.246132e-05  0 
 1.304610e-04  -3.713088e-04  0 
 1.407694e-04  -3.592915e-04  0 
 1.495383e-04  -3.080690e-04  0 
 5.134257e-05  -1.530728e-04  0 
 2.652241e-05  -4.703251e-05  0 
 1.593176e-04  -3.796190e-04  0 
 1.411157e-04  -3.970955e-04  0 
 2.592176e-04  -8.759884e-04  0 
 2.866101e-04  -1.267028e-03  0 
VECTORS displacement_ITER22 FLOAT
 0  0  0 
 2.486530e-04  -3.973949e-04  0 
 -2.881221e-05  -6.588155e-05  0 
 1.942097e-06  -1.691692e-04  0 
 8.351687e-05  -2.725369e-04  0 
 0  0  0 
 0  0  0 
 0  0  0 
 0  0  0 
 1.208979e-04  -3.567241e-04  0 
 1.298819e-04  -3.591944e-04  0 
 1.276363e-04  -3.857351e-04  0 
 2.635412e-04  -1.063336e-05  0 
 5.336385e-04  -3.729694e-04  0 
 1.176169e-03  -8.104095e-04  0 
 9.368737e-04  -4.944453e-04  0 
 7.917869e-04  -2.872487e-04  0 
 2.978885e-04  -2.664321e-04  0 
 6.008817e-04  -3.494665e-04  0 
 9.777083e-05  -1.185536e-04  0 
 1.110454e-04  -1.502991e-04  0 
 1.011421e-04  -2.983503e-04  0 
 7.718889e-06  -3.147608e-05  0 
 1.279556e-04  -3.543213e-04  0 
 1.348955e-04  -3.420168e-04  0 
 1.445865e-04  -2.962028e-04  0 
 5.190949e-05  -1.481382e-04  0 
 2.633272e-05  -4.611343e-05  0 
 1.612888e-04  -3.608687e-04  0 
 1.445520e-04  -3.796111e-04  0 
 3.472351e-04  -6.881666e-04  0 
 4.658542e-04  -1.129630e-03  0 
VECTORS displacement_ITER23 FLOAT
 0  0  0 
 2.540754e-04  -3.866674e-04  0 
 -2.698937e-05  -6.366186e-05  0 
 4.530033e-06  -1.648710e-04  0 
 8.703087e-05  -2.649723e-04  0 
 0  0  0 
 0  0  0 
 0  0  0 
 0  0  0 
 1.203582e-04  -3.457482e-04  0 
 1.279965e-04  -3.513460e-04  0 
 1.318260e-04  -3.839013e-04  0 
 3.250876e-04  3.065854e-05  0 
 5.458190e-04  -2.243340e-04  0 
 1.727456e-03  5.751340e-05  0 
 1.093148e-03  -2.334608e-05  0 
 9.773172e-04  -5.988772e-05  0 
 2.923379e-04  -2.393720e-04  0 
 6.831037e-04  -1.589807e-04  0 
 9.720856e-05  -1.244206e-04  0 
 1.087575e-04  -1.473884e-04  0 
 1.016106e-04  -2.924478e-04  0 
 8.032895e-06  -3.082894e-05  0 
 1.260805e-04  -3.460095e-04  0 
 1.334241e-04  -3.335839e-04  0 
 1.420368e-04  -2.894717e-04  0 
 5.220634e-05  -1.453315e-04  0 
 2.624587e-05  -4.550564e-05  0 
 1.707026e-04  -3.511784e-04  0 
 1.459462e-04  -3.715650e-04  0 
 3.989657e-04  -5.747370e-04  0 
 5.816638e-04  -1.124543e-03  0 
VECTORS displacement_ITER24 FLOAT
 0  0  0 
 2.552930e-04  -3.904783e-04  0 
 -2.731039e-05  -6.363914e-05  0 
 3.810221e-06  -1.659558e-04  0 
 8.660574e-05  -2.674098e-04  0 
 0  0  0 
 0  0  0 
 0  0  0 
 0  0  0 
 1.205328e-04  -3.498696e-04  0 
 1.312000e-04  -3.584442e-04  0 
 1.446350e-04  -3.969097e-04  0 
 3.198814e-04  4.602654e-05  0 
 5.117354e-04  -1.385501e-04  0 
 1.728600e-03  4.338183e-04  0 
 1.079665e-03  2.103818e-04  0 
 9.627552e-04  7.952086e-05  0 
 2.589301e-04  -2.040978e-04  0 
 6.868915e-04  -6.288054e-05  0 
 8.566515e-05  -1.171534e-04  0 
 1.094429e-04  -1.475928e-04  0 
 1.017957e-04  -2.945719e-04  0 
 8.138994e-06  -3.060180e-05  0 
 1.267312e-04  -3.492304e-04  0 
 1.390229e-04  -3.373823e-04  0 
 1.438237e-04  -2.901042e-04  0 
 5.269055e-05  -1.453316e-04  0 
 2.647110e-05  -4.539555e-05  0 
 1.894367e-04  -3.548625e-04  0 
 1.462173e-04  -3.752267e-04  0 
 4.269757e-04  -5.203004e-04  0 
 6.943570e-04  -1.153271e-03  0 
VECTORS displacement_ITER25 FLOAT
 0  0  0 
 2.545695e-04  -4.001925e-04  0 
 -2.857143e-05  -6.438392e-05  0 
 1.555607e-06  -1.690501e-04  0 
 8.430212e-05  -2.737114e-04  0 
 0  0  0 
 0  0  0 
 0  0  0 
 0  0  0 
 1.207003e-04  -3.598969e-04  0 
 1.359301e-04  -3.715816e-04  0 
 1.616177e-04  -4.169005e-04  0 
 1.716587e-04  2.521251e-05  0 
 3.485470e-04  -9.875594e-05  0 
 5.951044e-04  1.182429e-04  0 
 6.899828e-04  1.557831e-04  0 
 5.160416e-04  1.551139e-04  0 
 1.402622e-04  -1.144392e-04  0 
 5.214249e-04  -6.785852e-05  0 
 4.195199e-05  -7.287290e-05  0 
 1.109893e-04  -1.485607e-04  0 
 1.015819e-04  -2.997219e-04  0 
 8.106583e-06  -3.045518e-05  0 
 1.279372e-04  -3.569138e-04  0 
 1.471459e-04  -3.458013e-04  0 
 1.469085e-04  -2.932025e-04  0 
 5.309829e-05  -1.462252e-04  0 
 2.676943e-05  -4.537001e-05  0 
 2.137163e-04  -3.635255e-04  0 
 1.457832e-04  -3.834683e-04  0 
 4.101245e-04  -5.193166e-04  0 
 7.473005e-04  -1.234297e-03  0 
VECTORS displacement_ITER26 FLOAT
 0  0  0 
 2.545374e-04  -4.049566e-04  0 
 -2.912495e-05  -6.445575e-05  0 
 4.561347e-07  -1.702196e-04  0 
 8.320145e-05  -2.764557e-04  0 
 0  0  0 
 0  0  0 
 0  0  0 
 0  0  0 
 1.208227e-04  -3.645581e-04  0 
 1.381344e-04  -3.783005e-04  0 
 1.722399e-04  -4.288909e-04  0 
 -2.163293e-05  -1.531825e-05  0 
 1.605884e-04  -1.197048e-04  0 
 -9.173467e-04  -6.333027e-04  0 
 1.794037e-04  -1.241086e-04  0 
 -6.872095e-05  1.324578e-04  0 
 1.181101e-05  -2.443623e-05  0 
 2.961954e-04  -1.581438e-04  0 
 -6.007099e-06  -1.940598e-05  0 
 1.113811e-04  -1.484039e-04  0 
 1.014225e-04  -3.019198e-04  0 
 8.093444e-06  -3.023000e-05  0 
 1.282751e-04  -3.604338e-04  0 
 1.513996e-04  -3.496242e-04  0 
 1.481237e-04  -2.939823e-04  0 
 5.329013e-05  -1.462690e-04  0 
 2.691114e-05  -4.520272e-05  0 
 2.299017e-04  -3.673943e-04  0 
 1.456699e-04  -3.873184e-04  0 
 3.653887e-04  -5.353419e-04  0 
 7.190662e-04  -1.212294e-03  0 
VECTORS displacement_ITER27 FLOAT
 0  0  0 
 2.555380e-04  -4.041163e-04  0 
 -2.892675e-05  -6.399844e-05  0 
 6.092296e-07  -1.695871e-04  0 
 8.349692e-05  -2.755539e-04  0 
 0  0  0 
 0  0  0 
 0  0  0 
 0  0  0 
 1.206976e-04  -3.635335e-04  0 
 1.377299e-04  -3.783564e-04  0 
 1.760332e-04  -4.323586e-04  0 
 -1.437246e-04  -4.768455e-05  0 
 5.430605e-05  -1.690928e-04  0 
 -1.886601e-03  -1.272184e-03  0 
 -1.443716e-04  -4.043618e-04  0 
 -4.393617e-04  5.796821e-05  0 
 -5.626602e-05  1.905965e-05  0 
 1.497722e-04  -2.573574e-04  0 
 -3.178607e-05  1.223169e-05  0 
 1.106354e-04  -1.472511e-04  0 
 1.012836e-04  -3.011703e-04  0 
 8.113228e-06  -3.001520e-05  0 
 1.276275e-04  -3.596050e-04  0 
 1.516096e-04  -3.487360e-04  0 
 1.473869e-04  -2.924637e-04  0 
 5.325827e-05  -1.455887e-04  0 
 2.689187e-05  -4.496280e-05  0 
 2.370958e-04  -3.664244e-04  0 
 1.458209e-04  -3.866154e-04  0 
 3.268751e-04  -5.585473e-04  0 
 6.586866e-04  -1.144483e-03  0 
VECTORS displacement_ITER28 FLOAT
 0  0  0 
 2.572436e-04  -3.970135e-04  0 
 -2.814734e-05  -6.315470e-05  0 
 1.653654e-06  -1.672769e-04  0 
 8.471205e-05  -2.709609e-04  0 
 0  0  0 
 0  0  0 
 0  0  0 
 0  0  0 
 1.192933e-04  -3.564998e-04  0 
 1.339496e-04  -3.715667e-04  0 
 1.725528e-04  -4.272859e-04  0 
 -1.796291e-04  -5.976332e-05  0 
 2.284978e-05  -1.918401e-04  0 
 -2.153823e-03  -1.488991e-03  0 
 -2.448886e-04  -5.129758e-04  0 
 -5.484127e-04  1.485046e-05  0 
 -7.309002e-05  2.793136e-05  0 
 9.990948e-05  -2.965585e-04  0 
 -3.805489e-05  2.101456e-05  0 
 1.084600e-04  -1.448156e-04  0 
 1.005718e-04  -2.973616e-04  0 
 8.077964e-06  -2.982992e-05  0 
 1.251639e-04  -3.540825e-04  0 
 1.471527e-04  -3.427335e-04  0 
 1.440970e-04  -2.882144e-04  0 
 5.272427e-05  -1.441177e-04  0 
 2.661226e-05  -4.460304e-05  0 
 2.350248e-04  -3.600677e-04  0 
 1.454704e-04  -3.812096e-04  0 
 3.017283e-04  -5.840866e-04  0 
 5.563793e-04  -1.154253e-03  0 
VECTORS displacement_ITER29 FLOAT
 0  0  0 
 2.611694e-04  -3.826225e-04  0 
 -2.629610e-05  -6.118764e-05  0 
 4.284768e-06  -1.623962e-04  0 
 8.786187e-05  -2.616836e-04  0 
 0  0  0 
 0  0  0 
 0  0  0 
 0  0  0 
 1.178977e-04  -3.429027e-04  0 
 1.288512e-04  -3.589768e-04  0 
 1.672092e-04  -4.173525e-04  0 
 -1.254409e-04  -4.527538e-05  0 
 6.052705e-05  -1.600844e-04  0 
 -1.673192e-03  -1.145424e-03  0 
 -1.132038e-04  -3.700479e-04  0 
 -3.841152e-04  4.580645e-05  0 
 -4.509669e-05  1.116058e-05  0 
 1.529660e-04  -2.428794e-04  0 
 -2.687143e-05  8.117787e-06  0 
 1.050362e-04  -1.409284e-04  0 
 1.000829e-04  -2.897993e-04  0 
 8.188063e-06  -2.938494e-05  0 
 1.218893e-04  -3.434758e-04  0 
 1.407552e-04  -3.318373e-04  0 
 1.392229e-04  -2.804787e-04  0 
 5.221292e-05  -1.411777e-04  0 
 2.622708e-05  -4.395437e-05  0 
 2.310430e-04  -3.490107e-04  0 
 1.457205e-04  -3.704116e-04  0 
 3.076125e-04  -5.267209e-04  0 
 4.962645e-04  -1.030568e-03  0 
VECTORS displacement_ITER30 FLOAT
 0  0  0 
 2.654463e-04  -3.669197e-04  0 
 -2.413974e-05  -5.887080e-05  0 
 7.332120e-06  -1.569302e-04  0 