# vtk DataFile Version 3.1
this is an vtk file created by FEMAC
ASCII
DATASET UNSTRUCTURED_GRID
POINTS 33 FLOAT
1.000000 3.000000 0.000000
1.000000 4.000000 0.000000
1.000000 3.250000 0.000000
1.000000 3.500000 0.000000
1.000000 3.750000 0.000000
1.000000 4.250000 0.000000
1.500000 3.000000 0.000000
1.250000 4.000000 0.000000
1.500000 4.000000 0.000000
0.825570 3.361866 0.000000
0.825957 3.628272 0.000000
0.847252 3.832715 0.000000
0.847123 3.164854 0.000000
1.805000 3.255000 0.000000
1.361666 3.785642 0.000000
1.171305 3.165198 0.000000
1.630982 3.182178 0.000000
1.161848 3.344773 0.000000
1.223020 3.573994 0.000000
1.460006 3.535834 0.000000
1.681647 3.425464 0.000000
1.631588 3.748141 0.000000
1.155331 3.836478 0.000000
1.384851 3.278430 0.000000
1.175045 4.338476 0.000000
1.500000 4.775000 0.000000
1.341824 4.175618 0.000000
1.613228 4.205045 0.000000
1.200764 4.609959 0.000000
1.396983 4.637131 0.000000
1.561048 4.603297 0.000000
1.418444 4.423893 0.000000
1.153374 4.152819 0.000000
CELLS 42 168 
3 3 10  9
3 9 2 3
3 4 10  3
3 11  4  1
3 2 12  0
3 11 10  4
3 9 12  2
3 14  8  7
3 2 17  3
3 18  4  3
3 20 16 13
3 18 19 14
3 15 17  2
3 0 15  2
3 4 22  1
3 7 22 14
3 22  7  1
3 18 22  4
3 18 14 22
3 3 17 18
3 20 21 19
3 16 23  6
3 23 17 15
3 18 17 23
3 23 16 20
3 20 19 23
3 23 19 18
3 14 21  8
3 14 19 21
3 26  7  8
3 26 31 24
3 25 29 30
3 24 31 28
3 29 28 31
3 32  5  1
3 7 32  1
3 5 32 24
3 26 32  7
3 26 24 32
3 30 29 31
3 26  8 27
3 26 27 31
CELL_TYPES 42
5 5 5 5 5 5 5 5 5 5 5 5 5 5 5 5 5 5 5 5 5 5 5 5 5 5 5 5 5 5 5 5 5 5 5 5 5 5 5 5 5 5 
POINT_DATA 33
VECTORS displacement_ITER1 FLOAT
 -3.651298e-03  -9.402993e-03  0 
 1.838006e-02  -9.560157e-03  0 
 1.910403e-03  -9.450474e-03  0 
 7.439926e-03  -9.500548e-03  0 
 1.292820e-02  -9.533675e-03  0 
 -3.522239e-03  -1.615293e-02  0 
 -3.523683e-03  -2.056707e-02  0 
 1.839970e-02  -1.502446e-02  0 
 1.841027e-02  -2.050445e-02  0 
 2.019483e-03  4.510303e-03  0 
 8.344100e-03  4.465698e-04  0 
 1.249024e-02  -1.215524e-03  0 
 -1.488152e-03  1.992735e-03  0 
 2.059329e-03  -2.729028e-02  0 
 1.371745e-02  -1.747243e-02  0 
 3.942420e-05  -1.325334e-02  0 
 4.550177e-04  -2.342984e-02  0 
 4.023485e-03  -1.306147e-02  0 
 9.078202e-03  -1.442383e-02  0 
 8.237308e-03  -1.965084e-02  0 
 5.809001e-03  -2.454532e-02  0 
 1.289258e-02  -2.341115e-02  0 
 1.482431e-02  -1.294371e-02  0 
 2.568743e-03  -1.800245e-02  0 
 -3.744427e-03  -1.546124e-02  0 
 5.535044e-02  -8.186483e-02  0 
 1.165697e-02  -1.595539e-02  0 
 2.011892e-02  -2.703865e-02  0 
 -1.085517e-02  -9.671498e-03  0 
 1.252831e-02  -4.071943e-02  0 
 2.017892e-02  -6.960929e-02  0 
 -3.219410e-03  -2.279168e-02  0 
 9.204239e-03  -1.230052e-02  0 
VECTORS displacement_ITER2 FLOAT
 1.854642e-02  -2.579013e-02  0 
 1.370593e-02  -2.592583e-02  0 
 1.737352e-02  -2.583520e-02  0 
 1.618686e-02  -2.588557e-02  0 
 1.496282e-02  -2.591448e-02  0 
 -6.314578e-03  -2.178721e-02  0 
 1.866458e-02  -2.351596e-02  0 
 1.372630e-02  -2.469489e-02  0 
 1.373919e-02  -2.347574e-02  0 
 1.428350e-02  -1.856305e-02  0 
 1.359821e-02  -2.192563e-02  0 
 1.206906e-02  -2.302979e-02  0 
 1.630796e-02  -1.995312e-02  0 
 1.740001e-02  -2.204898e-02  0 
 1.479351e-02  -2.414665e-02  0 
 1.778378e-02  -2.502816e-02  0 
 1.774794e-02  -2.286111e-02  0 
 1.694164e-02  -2.509663e-02  0 
 1.583789e-02  -2.481873e-02  0 
 1.602443e-02  -2.368104e-02  0 
 1.656416e-02  -2.262114e-02  0 
 1.497948e-02  -2.284023e-02  0 
 1.453522e-02  -2.515212e-02  0 
 1.727224e-02  -2.404739e-02  0 
 -5.890626e-03  -2.183314e-02  0 
 9.048394e-02  -1.061563e-01  0 
 5.358971e-03  -2.475837e-02  0 
 1.836432e-02  -3.915624e-02  0 
 6.814151e-03  -1.200671e-02  0 
 3.342417e-02  -5.604437e-02  0 
 3.841847e-02  -9.963083e-02  0 
 -9.007119e-04  -3.885311e-02  0 
 3.277515e-03  -2.195120e-02  0 
VECTORS displacement_ITER3 FLOAT
 2.190387e-03  -1.305482e-02  0 
 2.477268e-02  -1.322845e-02  0 
 7.888115e-03  -1.311141e-02  0 
 1.356959e-02  -1.317405e-02  0 
 1.920137e-02  -1.321451e-02  0 
 8.414273e-03  -6.274735e-03  0 
 2.283128e-03  -2.454257e-02  0 
 2.480614e-02  -1.884054e-02  0 
 2.481910e-02  -2.446307e-02  0 
 7.446458e-03  -2.799942e-03  0 
 1.432994e-02  -5.629729e-03  0 
 1.818039e-02  -7.416616e-03  0 
 4.383735e-03  -4.226597e-03  0 
 8.050607e-03  -3.147914e-02  0 
 2.000893e-02  -2.135425e-02  0 
 5.970204e-03  -1.700894e-02  0 
 6.394810e-03  -2.749605e-02  0 
 1.006372e-02  -1.682291e-02  0 
 1.525533e-02  -1.822754e-02  0 
 1.439553e-02  -2.359650e-02  0 
 1.190402e-02  -2.863562e-02  0 
 1.916564e-02  -2.744999e-02  0 
 2.113939e-02  -1.670283e-02  0 
 8.573878e-03  -2.189977e-02  0 
 7.427516e-03  -1.344957e-02  0 
 3.955213e-02  -4.525500e-02  0 
 1.839196e-02  -1.686131e-02  0 
 2.181303e-02  -2.449506e-02  0 
 -6.010324e-03  -4.946402e-03  0 
 1.076192e-02  -2.228525e-02  0 
 1.622383e-02  -3.985565e-02  0 
 4.965365e-03  -1.387693e-02  0 
 1.621898e-02  -1.266520e-02  0 
VECTORS displacement_ITER4 FLOAT
 -2.001570e-03  -1.077044e-02  0 
 2.527816e-02  -1.095578e-02  0 
 4.872028e-03  -1.083047e-02  0 
 1.173587e-02  -1.089930e-02  0 
 1.854467e-02  -1.094541e-02  0 
 9.777986e-03  -1.361363e-03  0 
 -1.935941e-03  -2.463117e-02  0 
 2.532042e-02  -1.774521e-02  0 
 2.533550e-02  -2.454282e-02  0 
 4.974798e-03  -1.263707e-03  0 
 1.313747e-02  -3.542613e-03  0 
 1.783354e-02  -5.410209e-03  0 
 1.087235e-03  -2.399140e-03  0 
 5.058297e-03  -3.303109e-02  0 
 1.951944e-02  -2.078406e-02  0 
 2.554647e-03  -1.553409e-02  0 
 3.056022e-03  -2.821593e-02  0 
 7.497970e-03  -1.530831e-02  0 
 1.377288e-02  -1.700480e-02  0 
 1.273484e-02  -2.349334e-02  0 
 9.722527e-03  -2.958732e-02  0 
 1.850120e-02  -2.815146e-02  0 
 2.088579e-02  -1.515957e-02  0 
 5.696460e-03  -2.143920e-02  0 
 9.901462e-03  -1.181666e-02  0 
 2.843301e-02  -3.007122e-02  0 
 1.955725e-02  -1.542521e-02  0 
 2.116510e-02  -2.207066e-02  0 
 -7.070027e-03  -4.303647e-03  0 
 6.755388e-03  -1.477302e-02  0 
 1.183782e-02  -2.611305e-02  0 
 6.683710e-03  -9.280981e-03  0 
 1.695604e-02  -1.039691e-02  0 
VECTORS displacement_ITER5 FLOAT
 1.039666e-02  -7.055951e-03  0 
 7.018846e-03  -7.207407e-03  0 
 9.593931e-03  -7.115733e-03  0 
 8.798118e-03  -7.182646e-03  0 
 7.949590e-03  -7.222754e-03  0 
 -9.439724e-03  1.183357e-02  0 
 1.042569e-02  -5.603738e-03  0 
 7.071478e-03  -6.368898e-03  0 
 7.093794e-03  -5.529072e-03  0 
 6.683133e-03  -5.551987e-03  0 
 6.570770e-03  -6.798648e-03  0 
 4.945425e-03  -7.826372e-03  0 
 8.788606e-03  -5.453044e-03  0 
 9.625216e-03  -4.677256e-03  0 
 7.828897e-03  -5.989505e-03  0 
 9.877065e-03  -6.563741e-03  0 
 9.850433e-03  -5.184379e-03  0 
 9.316123e-03  -6.632166e-03  0 
 8.567321e-03  -6.455030e-03  0 
 8.700466e-03  -5.687581e-03  0 
 9.070531e-03  -4.999883e-03  0 
 7.965158e-03  -5.097157e-03  0 
 7.635734e-03  -6.672943e-03  0 
 9.548400e-03  -5.932173e-03  0 
 -4.283386e-03  1.700262e-04  0 
 6.013526e-02  -4.309618e-02  0 
 2.688095e-04  -4.440390e-03  0 
 9.203869e-03  -1.595485e-02  0 
 5.523408e-03  8.519823e-03  0 
 2.267524e-02  -1.684541e-02  0 
 2.499772e-02  -4.429760e-02  0 
 1.503762e-04  -1.059252e-02  0 
 -3.318956e-03  6.237359e-04  0 
VECTORS displacement_ITER6 FLOAT
 -2.324389e-03  -6.998414e-04  0 
 2.052315e-02  -8.675518e-04  0 
 3.436700e-03  -7.609156e-04  0 
 9.207327e-03  -8.288025e-04  0 
 1.491965e-02  -8.760722e-04  0 
 3.267575e-03  8.705747e-03  0 
 -2.330843e-03  -1.239526e-02  0 
 2.059433e-02  -6.579640e-03  0 
 2.062304e-02  -1.229035e-02  0 
 3.885373e-03  3.490594e-03  0 
 1.057689e-02  2.960936e-03  0 
 1.425063e-02  1.491906e-03  0 
 7.536319e-04  3.397067e-03  0 
 3.582483e-03  -1.949479e-02  0 
 1.573529e-02  -9.125268e-03  0 
 1.492352e-03  -4.706420e-03  0 
 1.894854e-03  -1.541940e-02  0 
 5.647804e-03  -4.526368e-03  0 
 1.092101e-02  -5.954486e-03  0 
 1.005123e-02  -1.141146e-02  0 
 7.518452e-03  -1.655641e-02  0 
 1.488809e-02  -1.531990e-02  0 
 1.687079e-02  -4.395007e-03  0 
 4.135404e-03  -9.683985e-03  0 
 9.992662e-03  -5.407568e-03  0 
 1.567808e-02  -9.934977e-03  0 
 1.709327e-02  -5.437578e-03  0 
 2.040148e-02  -1.160373e-02  0 
 -4.026882e-03  -5.693064e-03  0 
 4.860195e-03  -5.460105e-03  0 
 9.432199e-03  -7.058926e-03  0 
 1.038600e-02  -2.218661e-03  0 
 1.213803e-02  4.034861e-04  0 
VECTORS displacement_ITER7 FLOAT
 -2.299229e-04  -2.184847e-03  0 
 2.274483e-02  -2.338278e-03  0 
 5.554208e-03  -2.239029e-03  0 
 1.136406e-02  -2.301704e-03  0 
 1.711729e-02  -2.350146e-03  0 
 3.806265e-03  1.565620e-03  0 
 -2.842390e-04  -1.395640e-02  0 
 2.283209e-02  -8.096709e-03  0 
 2.286888e-02  -1.385086e-02  0 
 6.812561e-03  -4.209888e-04  0 
 1.314806e-02  4.053708e-05  0 
 1.680199e-02  -1.221896e-03  0 
 3.476859e-03  -1.066223e-04  0 
 5.686011e-03  -2.112471e-02  0 
 1.793906e-02  -1.065599e-02  0 
 3.597337e-03  -6.204877e-03  0 
 3.986466e-03  -1.701046e-02  0 
 7.778177e-03  -6.024257e-03  0 
 1.309025e-02  -7.461757e-03  0 
 1.221487e-02  -1.295969e-02  0 
 9.661409e-03  -1.815045e-02  0 
 1.708956e-02  -1.689960e-02  0 
 1.907856e-02  -5.888512e-03  0 
 6.253431e-03  -1.121714e-02  0 
 1.307415e-02  -1.129046e-02  0 
 5.731832e-03  -5.492186e-03  0 
 2.057575e-02  -7.952210e-03  0 
 2.394978e-02  -1.298926e-02  0 
 -2.903810e-03  -1.627107e-02  0 
 2.846754e-03  -7.966776e-03  0 
 7.544358e-03  -2.164531e-03  0 
 1.447921e-02  -5.503721e-03  0 
 1.475632e-02  -2.603243e-03  0 
VECTORS displacement_ITER8 FLOAT
 5.078410e-04  1.035540e-03  0 
 7.362801e-03  9.149907e-04  0 
 2.257350e-03  9.832467e-04  0 
 4.036298e-03  9.274055e-04  0 
 5.762672e-03  8.866153e-04  0 
 -1.089353e-02  8.379422e-03  0 
 4.326371e-04  -2.678803e-03  0 
 7.455154e-03  -8.372007e-04  0 
 7.495539e-03  -2.577676e-03  0 
 2.158778e-03  -7.497600e-04  0 
 4.012907e-03  5.988000e-05  0 
 4.446163e-03  -7.030399e-04  0 
 1.813406e-03  -9.475022e-06  0 
 2.297204e-03  -4.938049e-03  0 
 6.007698e-03  -1.599735e-03  0 
 1.667537e-03  -2.199638e-04  0 
 1.772457e-03  -3.624648e-03  0 
 2.951016e-03  -1.895339e-04  0 
 4.567713e-03  -6.378596e-04  0 
 4.307131e-03  -2.320217e-03  0 
 3.531030e-03  -3.944435e-03  0 
 5.765120e-03  -3.501715e-03  0 
 6.327950e-03  -1.473561e-04  0 
 2.493838e-03  -1.788681e-03  0 
 4.906664e-04  -2.327517e-03  0 
 2.525356e-02  -1.245888e-02  0 
 4.688256e-03  -8.040300e-04  0 
 1.175237e-02  -9.153506e-03  0 
 2.801547e-03  -3.821105e-03  0 
 1.071174e-02  -7.109550e-03  0 
 1.298937e-02  -1.351153e-02  0 
 5.897765e-03  -4.978187e-03  0 
 -9.389550e-04  4.354951e-03  0 
VECTORS displacement_ITER9 FLOAT
 3.233600e-04  2.832972e-03  0 
 6.304112e-03  2.722587e-03  0 
 1.852188e-03  2.784012e-03  0 
 3.417101e-03  2.732033e-03  0 
 4.930377e-03  2.690757e-03  0 
 -1.075115e-02  5.901655e-03  0 
 2.132613e-04  -4.529817e-04  0 
 6.410989e-03  1.175207e-03  0 
 6.458008e-03  -3.556773e-04  0 
 2.231643e-03  -2.418189e-04  0 
 3.589684e-03  1.060189e-03  0 
 3.893018e-03  4.846086e-04  0 
 1.852560e-03  6.603208e-04  0 
 1.873061e-03  -2.470657e-03  0 
 5.145758e-03  5.122606e-04  0 
 1.334933e-03  1.729922e-03  0 
 1.412580e-03  -1.297844e-03  0 
 2.463080e-03  1.753109e-03  0 
 3.885399e-03  1.357987e-03  0 
 3.657885e-03  -1.247727e-04  0 
 2.973359e-03  -1.568052e-03  0 
 4.939009e-03  -1.164372e-03  0 
 5.418819e-03  1.793202e-03  0 
 2.060846e-03  3.449459e-04  0 
 3.964914e-04  -2.976693e-03  0 
 1.691500e-02  -8.887098e-03  0 
 4.452517e-03  2.812476e-04  0 
 1.106381e-02  -7.742931e-03  0 
 1.469621e-03  -7.460906e-03  0 
 7.317929e-03  -6.715423e-03  0 
 9.597078e-03  -9.355146e-03  0 
 6.015203e-03  -4.653818e-03  0 
 -8.983546e-04  4.653802e-03  0 
VECTORS displacement_ITER10 FLOAT
 -5.556521e-03  4.896121e-03  0 
 1.224428e-02  4.785548e-03  0 
 -1.067589e-03  4.846793e-03  0 
 3.455312e-03  4.798128e-03  0 
 7.926317e-03  4.755591e-03  0 
 -1.468070e-03  1.981158e-03  0 
 -5.686525e-03  -4.311195e-03  0 
 1.236542e-02  2.774686e-04  0 
 1.241815e-02  -4.210605e-03  0 
 1.160595e-03  3.697119e-03  0 
 5.398365e-03  5.136233e-03  0 
 8.214974e-03  4.443310e-03  0 
 -1.792397e-03  4.260226e-03  0 
 -1.002531e-03  -9.948903e-03  0 
 8.564722e-03  -1.701605e-03  0 
 -2.589105e-03  1.764630e-03  0 
 -2.322661e-03  -6.710797e-03  0 
 6.628622e-04  1.902738e-03  0 
 4.798878e-03  7.859273e-04  0 
 4.119040e-03  -3.503679e-03  0 
 2.125040e-03  -7.576615e-03  0 
 7.916501e-03  -6.576620e-03  0 
 9.435701e-03  2.023255e-03  0 
 -5.272367e-04  -2.144575e-03  0 
 7.543250e-03  -7.168666e-03  0 
 -4.717987e-03  -1.312155e-03  0 
 1.246735e-02  -1.934397e-03  0 
 1.648843e-02  -8.592462e-03  0 
 -3.442724e-03  -1.751912e-02  0 
 -1.287156e-03  -6.575299e-03  0 
 2.453689e-03  1.952022e-03  0 
 1.101852e-02  -4.132559e-03  0 
 7.477567e-03  2.302691e-03  0 
VECTORS displacement_ITER11 FLOAT
 -2.311927e-03  5.188633e-03  0 
 5.562629e-03  5.095093e-03  0 
 -3.064155e-04  5.140042e-03  0 
 1.734186e-03  5.096019e-03  0 
 3.726065e-03  5.057284e-03  0 
 -4.959252e-03  3.531240e-03  0 
 -2.456606e-03  9.461269e-04  0 
 5.691102e-03  3.051652e-03  0 
 5.747846e-03  1.034032e-03  0 
 1.142882e-03  2.240370e-03  0 
 2.589268e-03  3.745183e-03  0 
 3.474950e-03  3.372884e-03  0 
 -3.532592e-05  2.941682e-03  0 
 -2.988600e-04  -1.671828e-03  0 
 4.010907e-03  2.181460e-03  0 
 -9.861199e-04  3.758525e-03  0 
 -8.952575e-04  -1.585681e-04  0 
 4.812979e-04  3.804787e-03  0 
 2.342286e-03  3.296755e-03  0 
 2.041324e-03  1.356062e-03  0 
 1.141613e-03  -5.204876e-04  0 
 3.737744e-03  -2.170022e-05  0 
 4.376345e-03  3.866216e-03  0 
 -5.178903e-05  1.970843e-03  0 
 2.599385e-03  -4.479891e-03  0 
 4.568911e-03  -1.210669e-02  0 
 5.817375e-03  9.697635e-05  0 
 1.182688e-02  -8.482274e-03  0 
 -6.922789e-04  -1.523326e-02  0 
 2.847431e-03  -1.110124e-02  0 
 5.961678e-03  -9.026314e-03  0 
 7.891331e-03  -6.917961e-03  0 
 1.631596e-03  3.658645e-03  0 
VECTORS displacement_ITER12 FLOAT
 -1.425184e-04  7.184225e-03  0 
 2.680726e-03  7.098001e-03  0 
 6.039671e-04  7.133676e-03  0 
 1.381253e-03  7.092105e-03  0 
 2.110842e-03  7.055418e-03  0 
 -4.310284e-03  6.014845e-03  0 
 -2.980823e-04  5.465130e-03  0 
 2.816409e-03  6.307273e-03  0 
 2.875565e-03  5.547516e-03  0 
 1.567382e-03  3.833553e-03  0 
 1.669155e-03  5.186534e-03  0 
 1.630071e-03  4.977286e-03  0 
 1.263841e-03  4.512526e-03  0 
 5.784981e-04  4.378546e-03  0 
 2.215733e-03  6.002124e-03  0 
 3.523052e-04  6.615544e-03  0 
 3.511860e-04  5.015764e-03  0 
 9.116930e-04  6.616555e-03  0 
 1.614758e-03  6.419215e-03  0 
 1.506580e-03  5.673078e-03  0 
 1.163340e-03  4.912558e-03  0 
 2.133905e-03  5.157929e-03  0 
 2.322967e-03  6.649740e-03  0 
 7.123048e-04  5.908931e-03  0 
 6.499105e-04  -5.485558e-04  0 
 4.003171e-03  -1.127678e-02  0 
 2.996547e-03  3.358294e-03  0 
 8.785346e-03  -4.869927e-03  0 
 -1.031897e-03  -1.069480e-02  0 
 2.212309e-03  -8.727426e-03  0 
 4.838041e-03  -8.319946e-03  0 
 5.574663e-03  -4.394692e-03  0 
 -8.448155e-05  5.900906e-03  0 
VECTORS displacement_ITER13 FLOAT
 -5.242361e-03  5.951064e-03  0 
 1.106241e-02  5.863005e-03  0 
 -1.113563e-03  5.899502e-03  0 
 3.034319e-03  5.860900e-03  0 
 7.133382e-03  5.824008e-03  0 
 8.967255e-03  5.854928e-04  0 
 -5.400591e-03  -2.511201e-03  0 
 1.120723e-02  1.705200e-03  0 
 1.126718e-02  -2.418957e-03  0 
 1.329326e-03  5.818060e-03  0 
 5.070173e-03  6.855243e-03  0 
 7.895608e-03  6.375366e-03  0 
 -1.728718e-03  6.005971e-03  0 
 -1.080970e-03  -7.716496e-03  0 
 7.719205e-03  -1.031152e-04  0 
 -2.510545e-03  3.066540e-03  0 
 -2.289205e-03  -4.729530e-03  0 
 4.703509e-04  3.200625e-03  0 
 4.264710e-03  2.182152e-03  0 
 3.640792e-03  -1.761028e-03  0 
 1.807218e-03  -5.513804e-03  0 
 7.131625e-03  -4.588415e-03  0 
 8.509717e-03  3.326753e-03  0 
 -6.266041e-04  -5.137891e-04  0 
 9.755805e-03  -4.064605e-03  0 
 -1.983524e-02  8.547550e-03  0 
 1.294003e-02  -3.468076e-04  0 
 1.323734e-02  -3.805063e-03  0 
 -5.771868e-03  -1.345130e-02  0 
 -7.452324e-03  -2.996610e-04  0 
 -4.654089e-03  1.211643e-02  0 
 9.675872e-03  5.713204e-04  0 
 1.126063e-02  1.159944e-03  0 
VECTORS displacement_ITER14 FLOAT
 2.777126e-03  2.796937e-03  0 
 -8.538360e-03  2.749447e-03  0 
 -5.301173e-06  2.749888e-03  0 
 -2.768804e-03  2.720242e-03  0 
 -5.573716e-03  2.694211e-03  0 
 -9.498119e-03  4.654947e-03  0 
 2.619950e-03  8.166078e-03  0 
 -8.395787e-03  5.474091e-03  0 
 -8.334734e-03  8.238085e-03  0 
 -6.376465e-04  -1.918936e-03  0 
 -4.214500e-03  -9.321602e-04  0 
 -6.952201e-03  -7.679596e-04  0 
 1.679157e-03  -1.192255e-03  0 
 -1.117776e-04  1.139341e-02  0 
 -5.974486e-03  6.745869e-03  0 
 9.412696e-04  4.651233e-03  0 
 6.917197e-04  9.568548e-03  0 
 -1.044113e-03  4.528142e-03  0 
 -3.585917e-03  5.203841e-03  0 
 -3.155219e-03  7.806525e-03  0 
 -1.937830e-03  1.018022e-02  0 
 -5.523798e-03  9.710222e-03  0 
 -6.586031e-03  4.485457e-03  0 
 -3.089833e-04  6.977744e-03  0 
 -7.778709e-03  3.888363e-03  0 
 1.926770e-02  -1.512076e-02  0 
 -8.516294e-03  4.020647e-03  0 
 -2.388323e-03  -3.666909e-03  0 
 4.331889e-03  2.236819e-03  0 
 8.519737e-03  -6.908484e-03  0 
 8.059864e-03  -1.747764e-02  0 
 -2.520053e-03  -5.016702e-03  0 
 -9.332873e-03  4.555620e-03  0 
VECTORS displacement_ITER15 FLOAT
 -2.039309e-03  2.545103e-03  0 
 3.091403e-03  2.492874e-03  0 
 -7.016679e-04  2.500870e-03  0 
 6.469309e-04  2.475300e-03  0 
 1.954149e-03  2.447430e-03  0 
 3.660252e-03  -2.362864e-03  0 
 -2.199545e-03  -3.046622e-04  0 
 3.241417e-03  1.116298e-03  0 
 3.303425e-03  -2.230342e-04  0 
 3.300254e-04  1.420984e-03  0 
 1.276788e-03  2.123276e-03  0 
 1.981705e-03  1.924930e-03  0 
 -6.191104e-04  1.666381e-03  0 
 -7.337289e-04  -2.102640e-03  0 
 2.141053e-03  5.538917e-04  0 
 -1.151764e-03  1.580590e-03  0 
 -1.127586e-03  -1.059921e-03  0 
 -1.835397e-04  1.618731e-03  0 
 1.047194e-03  1.291068e-03  0 
 8.491729e-04  -5.743347e-06  0 
 2.487375e-04  -1.281491e-03  0 
 1.973889e-03  -9.226721e-04  0 
 2.364085e-03  1.685220e-03  0 
 -5.427991e-04  4.013453e-04  0 
 3.183223e-03  -1.260507e-03  0 
 -5.911755e-03  4.933011e-03  0 
 4.731420e-03  4.196976e-04  0 
 5.472901e-03  -1.563360e-03  0 
 -1.526680e-03  -4.046347e-03  0 
 -1.917176e-03  8.674399e-04  0 
 -1.128706e-03  4.966890e-03  0 
 3.643736e-03  4.765316e-04  0 
 4.394173e-03  1.113211e-04  0 
VECTORS displacement_ITER16 FLOAT
 -7.127025e-04  2.063011e-03  0 
 1.129098e-03  2.021164e-03  0 
 -1.957706e-04  2.022500e-03  0 
 3.285359e-04  2.002840e-03  0 
 8.145743e-04  1.976936e-03  0 
 1.273470e-03  -3.296936e-03  0 
 -8.757478e-04  8.694472e-04  0 
 1.282321e-03  1.464547e-03  0 
 1.346760e-03  9.444873e-04  0 
 4.186469e-04  1.134917e-03  0 
 5.731491e-04  1.569323e-03  0 
 7.303639e-04  1.474629e-03  0 
 2.444144e-05  1.281104e-03  0 
 -2.487340e-04  7.107263e-05  0 
 8.850605e-04  1.269953e-03  0 
 -3.674372e-04  1.664436e-03  0 
 -4.033350e-04  5.431199e-04  0 
 7.584846e-06  1.676263e-03  0 
 4.846977e-04  1.552392e-03  0 
 4.121067e-04  1.033880e-03  0 
 1.740387e-04  4.862009e-04  0 
 8.421926e-04  6.778706e-04  0 
 9.406281e-04  1.724685e-03  0 
 -1.355689e-04  1.194822e-03  0 
 1.041883e-03  -1.454796e-03  0 
 -7.768258e-05  -3.704446e-03  0 
 2.549080e-03  4.135900e-04  0 
 4.260521e-03  -1.526084e-03  0 
 -6.330692e-04  -4.555470e-03  0 
 3.077542e-04  -3.385121e-03  0 
 1.357166e-03  -2.481982e-03  0 
 2.310789e-03  -1.805993e-03  0 
 2.213667e-03  -4.049190e-05  0 
VECTORS displacement_ITER17 FLOAT
 -7.210238e-04  1.017001e-03  0 
 1.165945e-03  9.784852e-04  0 
 -1.886820e-04  9.783920e-04  0 
 3.460624e-04  9.622732e-04  0 
 8.432628e-04  9.365004e-04  0 
 7.782896e-04  -2.810678e-03  0 
 -8.870049e-04  -1.940701e-04  0 
 1.320818e-03  4.133197e-04  0 
 1.386167e-03  -1.168711e-04  0 
 2.956520e-04  9.331109e-04  0 
 5.838364e-04  1.058169e-03  0 
 8.543107e-04  9.668567e-04  0 
 -1.598403e-04  9.131775e-04  0 
 -2.454114e-04  -1.011932e-03  0 
 9.156517e-04  2.136532e-04  0 
 -3.649374e-04  6.103360e-04  0 
 -4.038627e-04  -5.290756e-04  0 
 1.711607e-05  6.265725e-04  0 
 5.053310e-04  5.019466e-04  0 
 4.308508e-04  -2.819914e-05  0 
 1.868974e-04  -5.882538e-04  0 
 8.712981e-04  -3.915151e-04  0 
 9.730262e-04  6.775265e-04  0 
 -1.309321e-04  1.363790e-04  0 
 5.405316e-04  -1.466079e-03  0 
 -4.846412e-04  -3.519927e-03  0 
 1.849921e-03  -3.230300e-04  0 
 2.804195e-03  -1.375751e-03  0 
 -8.182122e-04  -3.007596e-03  0 
 -1.460781e-04  -2.866124e-03  0 
 5.772140e-04  -2.624245e-03  0 
 1.084453e-03  -1.695931e-03  0 
 1.669848e-03  -5.442038e-04  0 
VECTORS displacement_ITER18 FLOAT
 -5.984872e-04  -5.400180e-04  0 
 3.292838e-04  -5.730947e-04  0 
 -3.033216e-04  -5.770158e-04  0 
 -9.211125e-06  -5.899897e-04  0 
 2.481125e-04  -6.148156e-04  0 
 -3.921855e-05  -1.367435e-03  0 
 -7.677968e-04  -1.267922e-03  0 
 4.845465e-04  -8.970000e-04  0 
 5.501847e-04  -1.187099e-03  0 
 -5.793590e-05  -2.576716e-04  0 
 7.930247e-05  -3.345218e-04  0 
 2.137884e-04  -4.110639e-04  0 
 -3.381646e-04  -3.505866e-04  0 
 -3.684688e-04  -1.797196e-03  0 
 2.860365e-04  -9.905011e-04  0 
 -3.987459e-04  -7.823021e-04  0 
 -4.574193e-04  -1.479135e-03  0 
 -1.899837e-04  -7.719939e-04  0 
 7.866799e-05  -8.360140e-04  0 
 4.054039e-05  -1.139607e-03  0 
 -9.833516e-05  -1.489217e-03  0 
 2.775924e-04  -1.337565e-03  0 
 2.946085e-04  -7.243808e-04  0 
 -2.758819e-04  -1.047407e-03  0 
 -2.756175e-04  -9.257344e-04  0 
 8.785891e-05  -1.755913e-03  0 
 2.985856e-04  -1.031968e-03  0 
 5.464659e-04  -1.477843e-03  0 
 -2.821252e-04  -2.374727e-04  0 
 2.945022e-05  -1.314931e-03  0 
 6.101046e-05  -2.116332e-03  0 
 -3.407489e-04  -1.287936e-03  0 
 3.103971e-04  -9.700427e-04  0 
VECTORS displacement_ITER19 FLOAT
 -3.983993e-05  -1.334468e-03  0 
 3.243277e-04  -1.365667e-03  0 
 1.167054e-04  -1.371056e-03  0 
 2.695060e-04  -1.382053e-03  0 
 3.859848e-04  -1.406452e-03  0 
 2.113760e-05  5.016242e-04  0 
 -2.112529e-04  -1.779346e-03  0 
 4.807012e-04  -1.547091e-03  0 
 5.473588e-04  -1.696311e-03  0 
 1.398725e-04  -7.941308e-04  0 
 2.462080e-04  -1.015542e-03  0 
 3.024631e-04  -1.093903e-03  0 
 -1.375190e-05  -9.174326e-04  0 
 4.589038e-05  -2.139951e-03  0 
 4.038461e-04  -1.577953e-03  0 
 6.876510e-05  -1.481133e-03  0 
 -2.182504e-06  -1.918243e-03  0 
 1.756745e-04  -1.473915e-03  0 
 3.155247e-04  -1.502139e-03  0 
 2.986788e-04  -1.672811e-03  0 
 2.211902e-04  -1.899472e-03  0 
 4.166602e-04  -1.773838e-03  0 
 3.835580e-04  -1.428090e-03  0 
 1.260673e-04  -1.623162e-03  0 
 -1.296990e-04  -6.851868e-04  0 
 3.174005e-04  -1.823497e-03  0 
 -1.124826e-04  -1.420595e-03  0 
 -1.984875e-04  -1.568433e-03  0 
 -5.241769e-05  2.216650e-04  0 
 2.164320e-04  -1.231114e-03  0 
 1.916603e-04  -2.105277e-03  0 
 -4.345389e-04  -1.203368e-03  0 
 -1.363788e-04  -9.991209e-04  0 
VECTORS displacement_ITER20 FLOAT
 5.146336e-04  -1.354229e-03  0 
 -1.777823e-05  -1.386583e-03  0 
 4.495817e-04  -1.392070e-03  0 
 3.779656e-04  -1.402988e-03  0 
 2.698080e-04  -1.427152e-03  0 
 -4.363112e-04  1.573235e-03  0 
 3.463840e-04  -1.351658e-03  0 
 1.397564e-04  -1.343151e-03  0 
 2.074146e-04  -1.268302e-03  0 
 2.103590e-04  -7.920863e-04  0 
 1.947181e-04  -1.097200e-03  0 
 8.298131e-05  -1.173955e-03  0 
 2.689702e-04  -8.934582e-04  0 
 3.739395e-04  -1.438660e-03  0 
 2.556917e-04  -1.273606e-03  0 
 4.775559e-04  -1.349653e-03  0 
 3.912617e-04  -1.373016e-03  0 
 4.234151e-04  -1.349933e-03  0 
 3.574216e-04  -1.322578e-03  0 
 3.747081e-04  -1.280637e-03  0 
 3.960704e-04  -1.308873e-03  0 
 3.024654e-04  -1.227726e-03  0 
 1.894972e-04  -1.308907e-03  0 
 4.330229e-04  -1.298897e-03  0 
 -3.264457e-04  -2.188199e-04  0 
 2.469575e-03  -3.208682e-03  0 
 -6.287908e-04  -1.157020e-03  0 
 -6.097275e-04  -1.427141e-03  0 
 5.086398e-04  4.928614e-04  0 
 1.207103e-03  -1.694893e-03  0 
 1.291803e-03  -3.211383e-03  0 
 -3.744144e-04  -1.186783e-03  0 
 -7.177650e-04  -5.852971e-04  0 
VECTORS displacement_ITER21 FLOAT
 7.961359e-04  -1.211655e-03  0 
 5.842561e-05  -1.248347e-03  0 
 6.824115e-04  -1.251371e-03  0 
 5.595957e-04  -1.263304e-03  0 
 3.995708e-04  -1.287935e-03  0 
 -8.066998e-04  9.184363e-04  0 
 6.329488e-04  -1.108296e-03  0 
 2.176817e-04  -1.152432e-03  0 
 2.864591e-04  -1.025615e-03  0 
 2.754247e-04  -6.559170e-04  0 
 2.995969e-04  -9.921883e-04  0 
 1.364757e-04  -1.088512e-03  0 
 4.257537e-04  -7.197617e-04  0 
 6.066348e-04  -1.132072e-03  0 
 3.784390e-04  -1.059006e-03  0 
 7.276868e-04  -1.174758e-03  0 
 6.390392e-04  -1.102391e-03  0 
 6.371558e-04  -1.176750e-03  0 
 5.238936e-04  -1.136684e-03  0 
 5.490007e-04  -1.045805e-03  0 
 5.930878e-04  -1.028371e-03  0 
 4.333029e-04  -9.577649e-04  0 
 3.012328e-04  -1.137160e-03  0 
 6.604456e-04  -1.079853e-03  0 
 -6.093237e-04  -1.538386e-04  0 
 3.365421e-03  -3.222439e-03  0 
 -6.866158e-04  -9.336558e-04  0 
 -7.300355e-04  -1.095863e-03  0 
 5.971387e-04  8.247227e-04  0 
 1.484732e-03  -1.513884e-03  0 
 1.550010e-03  -3.354875e-03  0 
 -5.746751e-04  -9.690858e-04  0 
 -7.285598e-04  -5.254785e-04  0 
VECTORS displacement_ITER22 FLOAT
 8.811666e-04  -7.504134e-04  0 
 7.684325e-04  -7.926878e-04  0 
 9.257153e-04  -7.920459e-04  0 
 9.595245e-04  -8.054295e-04  0 
 9.555593e-04  -8.307597e-04  0 
 -3.524390e-04  -8.264873e-04  0 
 7.241332e-04  -9.610810e-04  0 
 9.303865e-04  -8.523837e-04  0 
 1.000805e-03  -8.814869e-04  0 
 5.042962e-04  -2.335992e-04  0 
 7.396934e-04  -5.314794e-04  0 
 6.717874e-04  -6.637218e-04  0 
 5.848087e-04  -2.523162e-04  0 
 8.548624e-04  -1.174908e-03  0 
 9.573220e-04  -8.272149e-04  0 
 9.179034e-04  -8.231119e-04  0 
 8.420072e-04  -1.036763e-03  0 
 9.403196e-04  -8.195401e-04  0 
 9.702531e-04  -8.179871e-04  0 
 9.714905e-04  -8.751108e-04  0 
 9.467280e-04  -9.957627e-04  0 
 9.891582e-04  -8.954240e-04  0 
 9.111967e-04  -7.766190e-04  0 
 9.224131e-04  -8.621463e-04  0 
 -3.955363e-04  -5.517341e-04  0 
 2.422224e-03  -2.545327e-03  0 
 1.575362e-04  -7.622526e-04  0 
 6.193180e-05  -7.196759e-04  0 
 2.550559e-04  3.250186e-04  0 
 1.053274e-03  -1.328912e-03  0 
 1.162724e-03  -2.705765e-03  0 
 -3.727320e-04  -8.413600e-04  0 
 2.091845e-04  -7.258925e-04  0 
VECTORS displacement_ITER23 FLOAT
 7.058344e-04  -7.217548e-05  0 
 1.056543e-03  -1.171486e-04  0 
 8.677867e-04  -1.151749e-04  0 
 1.017721e-03  -1.299457e-04  0 
 1.129379e-03  -1.552477e-04  0 
 4.873004e-04  -1.316860e-03  0 
 5.563661e-04  -5.151440e-04  0 
 1.220937e-03  -2.937367e-04  0 
 1.292854e-03  -4.395562e-04  0 
 5.212966e-04  3.165414e-04  0 
 8.543880e-04  9.394266e-05  0 
 8.513694e-04  -5.271054e-05  0 
 5.291327e-04  3.323542e-04  0 
 8.020826e-04  -8.678800e-04  0 
 1.147798e-03  -3.192168e-04  0 
 8.205118e-04  -2.259197e-04  0 
 7.556716e-04  -6.504339e-04  0 
 9.269345e-04  -2.186003e-04  0 
 1.062589e-03  -2.455464e-04  0 
 1.046020e-03  -4.123576e-04  0 
 9.706108e-04  -6.345558e-04  0 
 1.162573e-03  -5.136245e-04  0 
 1.124810e-03  -1.725708e-04  0 
 8.787305e-04  -3.648447e-04  0 
 9.634555e-05  -6.606177e-04  0 
 1.841709e-03  -3.034780e-03  0 
 8.847523e-04  -4.455944e-04  0 
 1.054044e-03  -5.817545e-04  0 
 9.125339e-05  -7.274123e-04  0 
 9.509553e-04  -1.860288e-03  0 
 1.302324e-03  -2.718169e-03  0 
 3.075488e-04  -9.660524e-04  0 
 9.484104e-04  -5.919003e-04  0 
VECTORS displacement_ITER24 FLOAT
 4.594127e-04  -4.108293e-05  0 
 5.336845e-04  -8.423586e-05  0 
 5.535489e-04  -8.431751e-05  0 
 6.344421e-04  -9.964383e-05  0 
 6.766230e-04  -1.239910e-04  0 
 6.672326e-04  -8.762794e-04  0 
 3.167123e-04  -3.458305e-04  0 
 6.993329e-04  -1.932674e-04  0 
 7.719700e-04  -2.712068e-04  0 
 2.376372e-04  1.281411e-04  0 
 4.478872e-04  -2.548385e-05  0 
 3.672239e-04  -1.621327e-04  0 
 2.989962e-04  1.749801e-04  0 
 4.887117e-04  -6.104937e-04  0 
 6.845951e-04  -1.879136e-04  0 
 5.294003e-04  -1.479490e-04  0 
 4.625956e-04  -4.428936e-04  0 
 5.868108e-04  -1.435059e-04  0 
 6.583283e-04  -1.530648e-04  0 
 6.519625e-04  -2.542755e-04  0 
 6.075923e-04  -4.140469e-04  0 
 7.097088e-04  -3.087152e-04  0 
 6.475573e-04  -9.760866e-05  0 
 5.571932e-04  -2.285761e-04  0 
 1.375531e-04  -2.863434e-04  0 
 2.138242e-03  -2.311319e-03  0 
 6.555131e-04  -2.419580e-04  0 
 9.509014e-04  -5.179852e-04  0 
 3.380027e-04  -3.742285e-04  0 
 1.193128e-03  -1.407238e-03  0 
 1.494622e-03  -2.195860e-03  0 
 4.466476e-04  -6.801285e-04  0 
 7.383964e-04  -4.374678e-04  0 
VECTORS displacement_ITER25 FLOAT
 3.243059e-04  -1.531369e-04  0 
 1.603414e-04  -1.911938e-04  0 
 3.585157e-04  -1.948049e-04  0 
 3.803711e-04  -2.097530e-04  0 
 3.633913e-04  -2.327794e-04  0 
 6.623218e-04  -3.166695e-04  0 
 1.861529e-04  -3.384818e-04  0 
 3.273957e-04  -2.428299e-04  0 
 4.011398e-04  -2.635487e-04  0 
 2.082487e-04  -2.605916e-04  0 
 2.218483e-04  -3.032752e-04  0 
 7.670595e-05  -4.089990e-04  0 
 2.720280e-04  -2.037304e-04  0 
 2.937595e-04  -5.270852e-04  0 
 3.620787e-04  -2.114080e-04  0 
 3.540698e-04  -2.174674e-04  0 
 2.853994e-04  -4.021019e-04  0 
 3.693952e-04  -2.156081e-04  0 
 3.861167e-04  -2.100184e-04  0 
 3.881173e-04  -2.555067e-04  0 
 3.700450e-04  -3.622268e-04  0 
 3.957461e-04  -2.702481e-04  0 
 3.132290e-04  -1.688766e-04  0 
 3.554902e-04  -2.488298e-04  0 
 3.070257e-04  -1.363383e-04  0 
 2.062558e-03  -1.647926e-03  0 
 5.353761e-04  -2.019938e-04  0 
 1.011861e-03  -6.024904e-04  0 
 5.702016e-04  -4.502523e-04  0 
 1.347907e-03  -1.179839e-03  0 
 1.653645e-03  -1.609140e-03  0 
 7.561187e-04  -5.827391e-04  0 
 5.082592e-04  -3.235237e-04  0 
VECTORS displacement_ITER26 FLOAT
 -6.817105e-06  -2.135390e-04  0 
 1.373215e-04  -2.499238e-04  0 
 1.045286e-04  -2.537426e-04  0 
 2.044864e-04  -2.690081e-04  0 
 2.648087e-04  -2.919121e-04  0 
 2.829438e-04  -2.908944e-04  0 
 -1.408463e-04  -5.538026e-04  0 
 3.057997e-04  -3.790133e-04  0 
 3.806831e-04  -4.778427e-04  0 
 1.918780e-04  -4.289314e-04  0 
 1.530870e-04  -3.864668e-04  0 