# vtk DataFile Version 3.1
this is an vtk file created by FEMAC
ASCII
DATASET UNSTRUCTURED_GRID
POINTS 31 FLOAT
2.000000 4.000000 0.000000
3.000000 4.000000 0.000000
1.500000 4.000000 0.000000
1.750000 4.000000 0.000000
2.000000 3.250000 0.000000
2.000000 3.500000 0.000000
2.000000 3.750000 0.000000
2.250000 4.000000 0.000000
2.500000 4.000000 0.000000
2.750000 4.000000 0.000000
1.805000 3.255000 0.000000
1.824607 3.643596 0.000000
1.681647 3.425464 0.000000
1.631588 3.748141 0.000000
1.841239 3.828347 0.000000
1.613228 4.205045 0.000000
1.837660 4.158674 0.000000
2.808904 3.785023 0.000000
2.769602 3.187596 0.000000
2.410643 3.818050 0.000000
2.626359 3.825025 0.000000
2.275508 3.443567 0.000000
2.567037 3.328363 0.000000
2.549450 3.615319 0.000000
2.182184 3.732871 0.000000
2.818560 3.488721 0.000000
2.354447 3.652452 0.000000
2.255000 4.195000 0.000000
2.661595 4.194695 0.000000
2.413341 4.323754 0.000000
2.845050 4.155217 0.000000
CELLS 42 168 
3 5 10  4
3 6 11  5
3 5 12 10
3 5 11 12
3 12 11 13
3 3 14  0
3 14  6  0
3 14 11  6
3 2 13  3
3 14  3 13
3 13 11 14
3 3 15  2
3 16  3  0
3 16 15  3
3 7 19  8
3 20  9  8
3 20 23 17
3 20 17  9
3 17  1  9
3 6 24  0
3 24  7  0
3 24 19  7
3 20  8 19
3 20 19 23
3 21 22 23
3 23 25 17
3 21  5  4
3 25 22 18
3 25 23 22
3 26 21 23
3 19 26 23
3 5 24  6
3 21 24  5
3 26 19 24
3 21 26 24
3 8 27  7
3 9 28  8
3 8 29 27
3 8 28 29
3 0  7 27
3 30  9  1
3 30 28  9
CELL_TYPES 42
5 5 5 5 5 5 5 5 5 5 5 5 5 5 5 5 5 5 5 5 5 5 5 5 5 5 5 5 5 5 5 5 5 5 5 5 5 5 5 5 5 5 
POINT_DATA 31
VECTORS displacement_ITER1 FLOAT
 2.405039e-02  -4.414117e-02  0 
 2.418029e-02  -1.515654e-01  0 
 2.398924e-02  -2.783797e-02  0 
 2.401367e-02  -3.596515e-02  0 
 -4.455262e-04  -4.410517e-02  0 
 7.712186e-03  -4.412192e-02  0 
 1.586658e-02  -4.413123e-02  0 
 2.409813e-02  -7.102722e-02  0 
 2.413898e-02  -9.789780e-02  0 
 2.416054e-02  -1.247229e-01  0 
 -2.861942e-04  -3.773141e-02  0 
 1.239457e-02  -3.839366e-02  0 
 5.269705e-03  -3.371303e-02  0 
 1.580673e-02  -3.208824e-02  0 
 1.842558e-02  -3.893253e-02  0 
 4.973777e-03  -3.088488e-02  0 
 1.251220e-02  -3.321323e-02  0 
 2.017368e-02  -1.235274e-01  0 
 4.584599e-02  -9.385451e-02  0 
 1.842214e-02  -8.816953e-02  0 
 1.901788e-02  -1.095536e-01  0 
 8.226102e-03  -7.302704e-02  0 
 2.255819e-02  -9.829548e-02  0 
 1.453273e-02  -1.009557e-01  0 
 1.567642e-02  -6.422283e-02  0 
 2.193224e-02  -1.079556e-01  0 
 1.425574e-02  -8.179501e-02  0 
 4.505739e-02  -7.160235e-02  0 
 4.503895e-02  -1.152536e-01  0 
 5.887657e-02  -8.860562e-02  0 
 4.081898e-02  -1.349391e-01  0 
VECTORS displacement_ITER2 FLOAT
 2.493403e-02  -3.489299e-02  0 
 2.502185e-02  -4.701701e-02  0 
 2.487029e-02  -2.463173e-02  0 
 2.489209e-02  -2.971294e-02  0 
 9.748409e-03  -3.469587e-02  0 
 1.479435e-02  -3.470584e-02  0 
 1.983555e-02  -3.476564e-02  0 
 2.495043e-02  -3.801859e-02  0 
 2.499885e-02  -4.103668e-02  0 
 2.501394e-02  -4.398722e-02  0 
 9.843645e-03  -3.073533e-02  0 
 1.766878e-02  -3.118608e-02  0 
 1.327079e-02  -2.826611e-02  0 
 1.976115e-02  -2.728742e-02  0 
 2.139789e-02  -3.156000e-02  0 
 1.187689e-02  -2.721961e-02  0 
 1.824877e-02  -2.912749e-02  0 
 2.180849e-02  -5.738868e-02  0 
 7.281112e-03  -9.129573e-02  0 
 2.476341e-02  -4.457994e-02  0 
 2.430158e-02  -4.910168e-02  0 
 1.696709e-02  -4.287839e-02  0 
 1.413095e-02  -6.497098e-02  0 
 2.282917e-02  -5.509400e-02  0 
 2.203882e-02  -4.021539e-02  0 
 1.607287e-02  -7.696288e-02  0 
 2.236712e-02  -4.559832e-02  0 
 2.731053e-02  -3.812219e-02  0 
 2.730332e-02  -4.295091e-02  0 
 2.880536e-02  -3.999709e-02  0 
 2.686577e-02  -4.512407e-02  0 
VECTORS displacement_ITER3 FLOAT
 7.224234e-03  -1.287667e-02  0 
 7.276905e-03  2.833868e-03  0 
 7.185884e-03  -4.357506e-03  0 
 7.197925e-03  -8.564038e-03  0 
 -5.282838e-03  -1.265683e-02  0 
 -1.094861e-03  -1.264616e-02  0 
 3.043693e-03  -1.270684e-02  0 
 7.206191e-03  -9.075887e-03  0 
 7.246366e-03  -5.124389e-03  0 
 7.261776e-03  -1.111886e-03  0 
 -5.193833e-03  -9.371985e-03  0 
 1.259332e-03  -9.754405e-03  0 
 -2.349647e-03  -7.323621e-03  0 
 2.956970e-03  -6.564709e-03  0 
 4.308166e-03  -1.009106e-02  0 
 1.269957e-02  5.793150e-04  0 
 1.061295e-02  -8.929757e-03  0 
 5.654428e-03  -1.305112e-02  0 
 -1.985059e-03  -4.061616e-02  0 
 7.811414e-03  -1.114278e-02  0 
 7.685173e-03  -9.566420e-03  0 
 2.764017e-03  -1.393267e-02  0 
 2.682400e-03  -2.357431e-02  0 
 7.260017e-03  -1.688951e-02  0 
 5.486637e-03  -1.357996e-02  0 
 2.973475e-03  -2.966444e-02  0 
 6.429965e-03  -1.378198e-02  0 
 4.124250e-03  -9.032163e-03  0 
 4.126504e-03  -2.542634e-03  0 
 2.019600e-03  -6.501517e-03  0 
 4.807285e-03  3.800442e-04  0 
VECTORS displacement_ITER4 FLOAT
 4.328038e-03  -2.511040e-03  0 
 4.601722e-03  -4.170386e-03  0 
 4.195734e-03  -7.473484e-04  0 
 4.251692e-03  -1.546994e-03  0 
 1.969385e-03  -2.283614e-03  0 
 2.751712e-03  -2.217992e-03  0 
 3.487250e-03  -2.290584e-03  0 
 4.372041e-03  -3.082302e-03  0 
 4.464852e-03  -3.506991e-03  0 
 4.530256e-03  -3.786596e-03  0 
 2.007441e-03  -1.620315e-03  0 
 3.146708e-03  -1.699601e-03  0 
 2.538731e-03  -1.229296e-03  0 
 3.416424e-03  -1.117869e-03  0 
 3.690647e-03  -1.817521e-03  0 
 6.659949e-03  -5.808880e-04  0 
 6.221610e-03  -1.316942e-03  0 
 1.081718e-03  -4.799049e-03  0 
 -5.098013e-03  1.459658e-03  0 
 2.822834e-03  -2.255281e-03  0 
 2.551056e-03  -2.978163e-03  0 
 7.218052e-04  -1.986079e-03  0 
 -3.576253e-03  -9.693621e-04  0 
 2.478318e-04  -1.857931e-03  0 
 2.709594e-03  -1.755721e-03  0 
 -2.402980e-03  -4.205543e-03  0 
 1.457233e-03  -1.844884e-03  0 
 4.714212e-03  -3.176058e-03  0 
 4.722458e-03  -3.745944e-03  0 
 4.829729e-03  -3.396842e-03  0 
 4.766414e-03  -3.971822e-03  0 
VECTORS displacement_ITER5 FLOAT
 2.981079e-03  -1.267713e-03  0 
 3.292568e-03  -2.312703e-03  0 
 2.791336e-03  1.470448e-03  0 
 2.878648e-03  2.105639e-04  0 
 -1.046181e-03  -1.017993e-03  0 
 3.260168e-04  -9.730972e-04  0 
 1.606738e-03  -1.044857e-03  0 
 3.049440e-03  -1.665620e-03  0 
 3.154032e-03  -1.936347e-03  0 
 3.224032e-03  -2.082508e-03  0 
 -1.005751e-03  1.325104e-04  0 
 1.036513e-03  -7.665871e-05  0 
 -1.025689e-04  7.662512e-04  0 
 1.534105e-03  9.110959e-04  0 
 1.976736e-03  -2.305281e-04  0 
 1.337476e-03  -3.344792e-04  0 
 2.395234e-03  7.584071e-04  0 
 1.989889e-04  -3.423090e-03  0 
 4.551812e-03  1.855340e-03  0 
 1.846848e-03  -1.860207e-03  0 
 1.482210e-03  -2.168287e-03  0 
 2.420512e-04  -2.650396e-03  0 
 8.293800e-04  -2.415951e-03  0 
 1.814293e-04  -2.632083e-03  0 
 1.561267e-03  -1.626227e-03  0 
 -1.446216e-04  -2.342868e-03  0 
 8.754120e-04  -2.096682e-03  0 
 3.276862e-03  -1.765230e-03  0 
 3.313715e-03  -2.096959e-03  0 
 3.322421e-03  -1.891592e-03  0 
 3.407122e-03  -2.242872e-03  0 
VECTORS displacement_ITER6 FLOAT
 7.288786e-04  -1.148176e-03  0 
 1.079772e-03  -2.910799e-03  0 
 5.248372e-04  -4.849156e-04  0 
 6.125283e-04  -7.237301e-04  0 
 -1.627955e-04  -9.107070e-04  0 
 1.244574e-04  -8.675158e-04  0 
 3.665474e-04  -9.466443e-04  0 
 8.222261e-04  -1.669783e-03  0 
 9.214648e-04  -2.130002e-03  0 
 9.871898e-04  -2.490780e-03  0 
 -1.462122e-04  -6.029887e-04  0 
 2.355752e-04  -7.051335e-04  0 
 1.829899e-05  -4.855583e-04  0 
 3.033612e-04  -5.153945e-04  0 
 4.212502e-04  -7.807899e-04  0 
 8.530058e-04  -7.277093e-04  0 
 9.244334e-04  -1.009309e-03  0 
 8.121125e-04  -2.599345e-03  0 
 1.327231e-03  -1.575954e-03  0 
 6.865561e-04  -2.019532e-03  0 
 7.592456e-04  -2.392629e-03  0 
 -3.519521e-05  -2.141177e-03  0 
 3.378563e-04  -2.488393e-03  0 
 3.889163e-04  -2.392501e-03  0 
 5.200524e-04  -1.465788e-03  0 
 5.527637e-04  -2.435508e-03  0 
 3.737549e-04  -2.029313e-03  0 
 1.201707e-03  -1.767055e-03  0 
 1.241697e-03  -2.415304e-03  0 
 1.374748e-03  -2.012001e-03  0 
 1.272004e-03  -2.715254e-03  0 
VECTORS displacement_ITER7 FLOAT
 7.216699e-04  -1.277132e-03  0 
 1.169485e-03  -3.164149e-03  0 
 5.222180e-04  -6.179220e-04  0 
 5.923003e-04  -8.640152e-04  0 
 1.696159e-04  -8.861960e-04  0 
 2.271195e-04  -8.858205e-04  0 
 3.791567e-04  -1.032108e-03  0 
 8.383052e-04  -1.901924e-03  0 
 9.722847e-04  -2.414846e-03  0 
 1.058339e-03  -2.750275e-03  0 
 1.775007e-04  -8.047986e-04  0 
 2.658808e-04  -8.250863e-04  0 
 2.033161e-04  -7.430791e-04  0 
 3.003525e-04  -6.922469e-04  0 
 4.126583e-04  -9.078950e-04  0 
 4.576346e-04  -9.418672e-04  0 
 7.496063e-04  -1.046013e-03  0 
 8.481289e-04  -2.728953e-03  0 
 7.109208e-04  -1.668758e-03  0 
 7.071300e-04  -2.021522e-03  0 
 8.330245e-04  -2.427325e-03  0 
 2.944055e-04  -1.378572e-03  0 
 3.626939e-04  -1.936189e-03  0 
 5.459259e-04  -2.079810e-03  0 
 4.587182e-04  -1.435676e-03  0 
 5.501695e-04  -2.373099e-03  0 
 4.854358e-04  -1.716907e-03  0 
 1.268016e-03  -2.033670e-03  0 
 1.293931e-03  -2.688110e-03  0 
 1.458999e-03  -2.293506e-03  0 
 1.299885e-03  -2.939512e-03  0 
VECTORS displacement_ITER8 FLOAT
 8.372322e-04  -1.245196e-03  0 
 1.258145e-03  -2.435533e-03  0 
 5.921657e-04  -5.682972e-04  0 
 6.870023e-04  -8.212839e-04  0 
 1.107278e-04  -8.979954e-04  0 
 2.320179e-04  -9.137725e-04  0 
 4.451847e-04  -1.030041e-03  0 
 9.596358e-04  -1.630636e-03  0 
 1.077599e-03  -1.954957e-03  0 
 1.147764e-03  -2.152700e-03  0 
 1.059617e-04  -7.920940e-04  0 
 3.169805e-04  -7.970052e-04  0 
 1.984507e-04  -6.889235e-04  0 
 3.814627e-04  -6.235420e-04  0 
 5.015622e-04  -8.655098e-04  0 
 7.553932e-04  -6.810420e-04  0 
 9.584225e-04  -1.126753e-03  0 
 1.065586e-03  -2.212110e-03  0 
 2.859841e-04  -1.712181e-03  0 
 8.302730e-04  -1.736971e-03  0 
 9.845450e-04  -2.019924e-03  0 
 2.994193e-04  -1.381325e-03  0 
 2.342925e-04  -1.785901e-03  0 
 6.413753e-04  -1.788878e-03  0 
 5.660244e-04  -1.333607e-03  0 
 5.395447e-04  -2.165325e-03  0 
 5.702250e-04  -1.556288e-03  0 
 1.244697e-03  -1.743969e-03  0 
 1.281495e-03  -2.122894e-03  0 
 1.373348e-03  -1.894360e-03  0 
 1.298732e-03  -2.286943e-03  0 
VECTORS displacement_ITER9 FLOAT
 8.380106e-04  -1.168341e-03  0 
 1.260672e-03  -2.333441e-03  0 
 5.933371e-04  -5.222808e-04  0 
 6.869574e-04  -7.625494e-04  0 
 1.477796e-04  -8.298296e-04  0 
 2.630115e-04  -8.401685e-04  0 
 4.624503e-04  -9.551153e-04  0 
 9.468119e-04  -1.560462e-03  0 
 1.059106e-03  -1.887965e-03  0 
 1.140079e-03  -2.090967e-03  0 
 1.523416e-04  -7.334661e-04  0 
 3.414917e-04  -7.342683e-04  0 
 2.335599e-04  -6.330111e-04  0 
 4.002769e-04  -5.764354e-04  0 
 5.139457e-04  -8.007366e-04  0 
 6.287334e-04  -6.122115e-04  0 
 8.826182e-04  -9.703451e-04  0 
 1.109839e-03  -2.110430e-03  0 
 4.446073e-04  -1.904132e-03  0 
 8.574042e-04  -1.684817e-03  0 
 1.010133e-03  -1.949622e-03  0 
 4.070308e-04  -1.252393e-03  0 
 4.448376e-04  -1.736086e-03  0 
 7.581791e-04  -1.743076e-03  0 
 5.943846e-04  -1.282058e-03  0 
 7.310358e-04  -2.084439e-03  0 
 6.485974e-04  -1.488021e-03  0 
 1.227088e-03  -1.666964e-03  0 
 1.270731e-03  -2.066997e-03  0 
 1.369730e-03  -1.829370e-03  0 
 1.278545e-03  -2.216170e-03  0 
VECTORS displacement_ITER10 FLOAT
 8.456508e-04  -1.158267e-03  0 
 1.280314e-03  -2.311920e-03  0 
 5.930855e-04  -5.153194e-04  0 
 6.914757e-04  -7.509023e-04  0 
 1.449602e-04  -8.179564e-04  0 
 2.626264e-04  -8.298699e-04  0 
 4.647995e-04  -9.471920e-04  0 
 9.580308e-04  -1.543450e-03  0 
 1.072117e-03  -1.871147e-03  0 
 1.154770e-03  -2.071376e-03  0 
 1.500323e-04  -7.144398e-04  0 
 3.421913e-04  -7.250655e-04  0 
 2.267754e-04  -6.226162e-04  0 
 4.064480e-04  -5.611838e-04  0 
 5.191879e-04  -7.885385e-04  0 
 6.871457e-04  -7.164258e-04  0 
 9.268848e-04  -9.648920e-04  0 
 1.091240e-03  -2.076390e-03  0 
 1.956998e-04  -1.928865e-03  0 
 8.534023e-04  -1.633674e-03  0 
 1.009965e-03  -1.893527e-03  0 
 4.178314e-04  -1.088704e-03  0 
 4.678025e-04  -1.479507e-03  0 
 7.730685e-04  -1.634728e-03  0 
 5.793314e-04  -1.236979e-03  0 
 7.769713e-04  -1.982933e-03  0 
 6.528507e-04  -1.393897e-03  0 
 1.237531e-03  -1.650576e-03  0 
 1.282300e-03  -2.048705e-03  0 
 1.379651e-03  -1.816806e-03  0 
 1.289943e-03  -2.195929e-03  0 
VECTORS displacement_ITER11 FLOAT
 8.436144e-04  -1.157250e-03  0 
 1.281736e-03  -2.301814e-03  0 
 5.912677e-04  -5.101190e-04  0 
 6.891592e-04  -7.491779e-04  0 
 1.430934e-04  -8.169149e-04  0 
 2.598075e-04  -8.295789e-04  0 
 4.621325e-04  -9.462088e-04  0 
 9.567584e-04  -1.541267e-03  0 
 1.071268e-03  -1.867812e-03  0 
 1.154141e-03  -2.070186e-03  0 
 1.474976e-04  -7.154074e-04  0 
 3.397478e-04  -7.242100e-04  0 
 2.249161e-04  -6.224355e-04  0 
 4.039959e-04  -5.605631e-04  0 
 5.166099e-04  -7.873070e-04  0 
 7.322546e-04  -6.705386e-04  0 
 9.452055e-04  -9.716071e-04  0 
 1.046804e-03  -2.105658e-03  0 
 3.144607e-04  -1.790558e-03  0 
 8.396102e-04  -1.644490e-03  0 
 9.840095e-04  -1.909092e-03  0 
 3.614273e-04  -1.198472e-03  0 
 3.870831e-04  -1.556473e-03  0 
 7.122298e-04  -1.680435e-03  0 
 5.785702e-04  -1.243625e-03  0 
 7.041454e-04  -2.016875e-03  0 
 6.160842e-04  -1.438967e-03  0 
 1.235732e-03  -1.648834e-03  0 
 1.282123e-03  -2.046860e-03  0 
 1.377165e-03  -1.812968e-03  0 
 1.288303e-03  -2.194664e-03  0 
VECTORS displacement_ITER12 FLOAT
 8.437612e-04  -1.157069e-03  0 
 1.281426e-03  -2.302781e-03  0 
 5.912763e-04  -5.101410e-04  0 
 6.893070e-04  -7.488710e-04  0 
 1.425793e-04  -8.165104e-04  0 
 2.592410e-04  -8.293854e-04  0 
 4.618900e-04  -9.462007e-04  0 
 9.567140e-04  -1.542070e-03  0 
 1.071447e-03  -1.867860e-03  0 
 1.153645e-03  -2.070408e-03  0 
 1.468504e-04  -7.150279e-04  0 
 3.392847e-04  -7.239216e-04  0 
 2.242846e-04  -6.222485e-04  0 
 4.037676e-04  -5.598140e-04  0 
 5.165520e-04  -7.870200e-04  0 
 7.349138e-04  -6.709437e-04  0 
 9.328646e-04  -9.619242e-04  0 
 1.050548e-03  -2.099783e-03  0 
 2.982640e-04  -1.788846e-03  0 
 8.393295e-04  -1.644355e-03  0 
 9.847906e-04  -1.907649e-03  0 
 3.645971e-04  -1.203045e-03  0 
 3.817437e-04  -1.552250e-03  0 
 7.131922e-04  -1.676295e-03  0 
 5.787388e-04  -1.245286e-03  0 
 7.016287e-04  -2.017429e-03  0 
 6.165150e-04  -1.439538e-03  0 
 1.235371e-03  -1.650001e-03  0 
 1.282065e-03  -2.046273e-03  0 
 1.376906e-03  -1.813575e-03  0 
 1.288000e-03  -2.195206e-03  0 
VECTORS displacement_ITER13 FLOAT
 8.439716e-04  -1.157357e-03  0 
 1.281638e-03  -2.302123e-03  0 
 5.915774e-04  -5.098885e-04  0 
 6.895353e-04  -7.489677e-04  0 
 1.424412e-04  -8.167621e-04  0 
 2.592746e-04  -8.295581e-04  0 
 4.619450e-04  -9.464440e-04  0 
 9.568594e-04  -1.542344e-03  0 
 1.071572e-03  -1.867988e-03  0 
 1.153851e-03  -2.070246e-03  0 
 1.467679e-04  -7.150880e-04  0 
 3.392991e-04  -7.240982e-04  0 
 2.242841e-04  -6.224274e-04  0 
 4.038007e-04  -5.599135e-04  0 
 5.166371e-04  -7.872059e-04  0 
 7.359455e-04  -6.719675e-04  0 
 9.317371e-04  -9.620013e-04  0 
 1.051207e-03  -2.098840e-03  0 
 3.039036e-04  -1.793120e-03  0 
 8.399404e-04  -1.644531e-03  0 
 9.853136e-04  -1.907474e-03  0 
 3.636709e-04  -1.199099e-03  0 
 3.803761e-04  -1.552259e-03  0 
 7.150161e-04  -1.676700e-03  0 
 5.787470e-04  -1.244735e-03  0 
 7.033340e-04  -2.020093e-03  0 
 6.172989e-04  -1.438705e-03  0 
 1.235407e-03  -1.650266e-03  0 
 1.282026e-03  -2.046291e-03  0 
 1.376872e-03  -1.813636e-03  0 
 1.288062e-03  -2.194957e-03  0 
VECTORS displacement_ITER14 FLOAT
 8.439434e-04  -1.157318e-03  0 
 1.281645e-03  -2.302178e-03  0 
 5.915488e-04  -5.099110e-04  0 
 6.895086e-04  -7.489580e-04  0 
 1.424282e-04  -8.167453e-04  0 
 2.592764e-04  -8.295417e-04  0 
 4.619438e-04  -9.464094e-04  0 
 9.568443e-04  -1.542291e-03  0 
 1.071558e-03  -1.867961e-03  0 
 1.153824e-03  -2.070251e-03  0 
 1.467512e-04  -7.150687e-04  0 
 3.393056e-04  -7.240729e-04  0 
 2.242868e-04  -6.223826e-04  0 
 4.037949e-04  -5.599099e-04  0 
 5.166277e-04  -7.871847e-04  0 
 7.360464e-04  -6.726110e-04  0 
 9.306535e-04  -9.606950e-04  0 
 1.050714e-03  -2.098489e-03  0 
 3.032562e-04  -1.794700e-03  0 
 8.399175e-04  -1.644617e-03  0 
 9.850754e-04  -1.907314e-03  0 
 3.638522e-04  -1.198881e-03  0 
 3.809567e-04  -1.551333e-03  0 
 7.154719e-04  -1.676875e-03  0 
 5.787892e-04  -1.244788e-03  0 
 7.052174e-04  -2.019077e-03  0 
 6.175273e-04  -1.438772e-03  0 
 1.235409e-03  -1.650211e-03  0 
 1.282025e-03  -2.046268e-03  0 
 1.376876e-03  -1.813616e-03  0 
 1.288062e-03  -2.195000e-03  0 
CELL_DATA 42
TENSORS element_stresses FLOAT
 -2.806683e-02  -4.256745e-02  0 
 -4.256745e-02  -5.960555e-02  0 
 0  0  0 

 7.382375e-02  -1.333739e-01  0 
 -1.333739e-01  -4.453239e-01  0 
 0  0  0 

 2.374484e-02  -1.602643e-01  0 
 -1.602643e-01  6.941619e-02  0 
 0  0  0 

 -3.304899e-02  -7.843205e-02  0 
 -7.843205e-02  -5.682698e-02  0 
 0  0  0 

 -1.715162e-02  -2.025258e-01  0 
 -2.025258e-01  6.217624e-02  0 
 0  0  0 

 4.660218e-01  -2.291796e-01  0 
 -2.291796e-01  -5.057237e-01  0 
 0  0  0 

 1.720058e-01  8.365296e-02  0 
 8.365296e-02  -7.920315e-01  0 
 0  0  0 

 5.661878e-02  -1.330908e-01  0 
 -1.330908e-01  -2.236439e-01  0 
 0  0  0 

 3.313423e-01  -4.609776e-03  0 
 -4.609776e-03  -2.016562e-01  0 
 0  0  0 

 4.276356e-02  7.924160e-02  0 
 7.924160e-02  -2.809498e-01  0 
 0  0  0 

 1.113064e-01  -3.348832e-02  0 
 -3.348832e-02  -2.193267e-01  0 
 0  0  0 

 3.430755e-04  -3.598878e-04  0 
 -3.598878e-04  -1.625456e-04  0 
 0  0  0 

 5.364100e-04  -3.499661e-04  0 
 -3.499661e-04  -2.710964e-04  0 
 0  0  0 

 9.799379e-04  -3.580599e-04  0 
 -3.580599e-04  -2.672390e-04  0 
 0  0  0 

 3.104743e-04  -1.960990e-04  0 
 -1.960990e-04  -4.946000e-04  0 
 0  0  0 

 2.431156e-04  -5.943614e-05  0 
 -5.943614e-05  -2.865010e-04  0 
 0  0  0 

 4.341927e-04  -9.564605e-05  0 
 -9.564605e-05  -5.313466e-04  0 
 0  0  0 

 4.886832e-04  -3.603584e-04  0 
 -3.603584e-04  -1.893698e-05  0 
 0  0  0 

 5.213528e-04  -2.369085e-04  0 
 -2.369085e-04  3.356682e-05  0 
 0  0  0 

 5.845368e-04  -1.454635e-04  0 
 -1.454635e-04  -6.682722e-04  0 
 0  0  0 

 2.579902e-04  -1.840668e-04  0 
 -1.840668e-04  -6.453787e-04  0 
 0  0  0 

 5.031351e-04  -1.782576e-04  0 
 -1.782576e-04  -5.884511e-04  0 
 0  0  0 

 4.945711e-04  -1.840513e-04  0 
 -1.840513e-04  -4.912194e-04  0 
 0  0  0 

 4.844975e-04  -1.116446e-04  0 
 -1.116446e-04  -5.147228e-04  0 
 0  0  0 

 4.120244e-04  -1.675441e-04  0 
 -1.675441e-04  -4.006816e-04  0 
 0  0  0 

 4.660401e-04  -1.819431e-04  0 
 -1.819431e-04  -1.744568e-04  0 
 0  0  0 

 5.054456e-04  -6.797423e-04  0 
 -6.797423e-04  1.004482e-04  0 
 0  0  0 

 3.743069e-04  -2.225520e-04  0 
 -2.225520e-04  -3.816947e-04  0 
 0  0  0 

 4.024419e-04  -2.487227e-04  0 
 -2.487227e-04  -4.099987e-04  0 
 0  0  0 

 5.406748e-04  -2.978643e-04  0 
 -2.978643e-04  -4.786887e-04  0 
 0  0  0 

 5.257939e-04  -2.060801e-04  0 
 -2.060801e-04  -6.206469e-04  0 
 0  0  0 

 6.344338e-04  -6.700501e-04  0 
 -6.700501e-04  -2.771409e-04  0 
 0  0  0 

 4.170226e-04  -4.181600e-04  0 
 -4.181600e-04  -5.078394e-04  0 
 0  0  0 

 5.630601e-04  -2.920179e-04  0 
 -2.920179e-04  -5.742431e-04  0 
 0  0  0 

 5.370753e-04  -3.483794e-04  0 
 -3.483794e-04  -4.533522e-04  0 
 0  0  0 

 3.327963e-01  8.776351e-02  0 
 8.776351e-02  -4.201933e-01  0 
 0  0  0 

 2.810943e-01  -9.801414e-04  0 
 -9.801414e-04  -1.599053e-01  0 
 0  0  0 

 8.490675e-02  8.669935e-03  0 
 8.669935e-03  -6.353208e-02  0 
 0  0  0 

 1.063254e-01  -8.131876e-03  0 
 -8.131876e-03  -6.450863e-02  0 
 0  0  0 

 3.268339e-01  -9.456621e-02  0 
 -9.456621e-02  -4.158996e-01  0 
 0  0  0 

 4.841766e-01  -2.892002e-01  0 
 -2.892002e-01  -9.035358e-02  0 
 0  0  0 

 1.231578e-01  -9.446588e-02  0 
 -9.446588e-02  -2.345221e-01  0 
 0  0  0 

TENSORS element_stresses FLOAT
 -2.806683e-02  -4.256745e-02  0 
 -4.256745e-02  -5.960555e-02  0 
 0  0  0 

 7.382375e-02  -1.333739e-01  0 
 -1.333739e-01  -4.453239e-01  0 
 0  0  0 

 2.374484e-02  -1.602643e-01  0 
 -1.602643e-01  6.941619e-02  0 
 0  0  0 

 -3.304899e-02  -7.843205e-02  0 
 -7.843205e-02  -5.682698e-02  0 
 0  0  0 

 -1.715162e-02  -2.025258e-01  0 
 -2.025258e-01  6.217624e-02  0 
 0  0  0 

 4.660218e-01  -2.291796e-01  0 
 -2.291796e-01  -5.057237e-01  0 
 0  0  0 

 1.720058e-01  8.365296e-02  0 
 8.365296e-02  -7.920315e-01  0 
 0  0  0 

 5.661878e-02  -1.330908e-01  0 
 -1.330908e-01  -2.236439e-01  0 
 0  0  0 

 3.313423e-01  -4.609776e-03  0 
 -4.609776e-03  -2.016562e-01  0 
 0  0  0 

 4.276356e-02  7.924160e-02  0 
 7.924160e-02  -2.809498e-01  0 
 0  0  0 

 1.113064e-01  -3.348832e-02  0 
 -3.348832e-02  -2.193267e-01  0 
 0  0  0 

 3.430755e-04  -3.598878e-04  0 
 -3.598878e-04  -1.625456e-04  0 
 0  0  0 

 5.364100e-04  -3.499661e-04  0 
 -3.499661e-04  -2.710964e-04  0 
 0  0  0 

 9.799379e-04  -3.580599e-04  0 
 -3.580599e-04  -2.672390e-04  0 
 0  0  0 

 3.104743e-04  -1.960990e-04  0 
 -1.960990e-04  -4.946000e-04  0 
 0  0  0 

 2.431156e-04  -5.943614e-05  0 
 -5.943614e-05  -2.865010e-04  0 
 0  0  0 

 4.341927e-04  -9.564605e-05  0 
 -9.564605e-05  -5.313466e-04  0 
 0  0  0 

 4.886832e-04  -3.603584e-04  0 
 -3.603584e-04  -1.893698e-05  0 
 0  0  0 

 5.213528e-04  -2.369085e-04  0 
 -2.369085e-04  3.356682e-05  0 
 0  0  0 

 5.845368e-04  -1.454635e-04  0 
 -1.454635e-04  -6.682722e-04  0 
 0  0  0 

 2.579902e-04  -1.840668e-04  0 
 -1.840668e-04  -6.453787e-04  0 
 0  0  0 

 5.031351e-04  -1.782576e-04  0 
 -1.782576e-04  -5.884511e-04  0 
 0  0  0 

 4.945711e-04  -1.840513e-04  0 
 -1.840513e-04  -4.912194e-04  0 
 0  0  0 

 4.844975e-04  -1.116446e-04  0 
 -1.116446e-04  -5.147228e-04  0 
 0  0  0 

 4.120244e-04  -1.675441e-04  0 
 -1.675441e-04  -4.006816e-04  0 
 0  0  0 

 4.660401e-04  -1.819431e-04  0 
 -1.819431e-04  -1.744568e-04  0 
 0  0  0 

 5.054456e-04  -6.797423e-04  0 
 -6.797423e-04  1.004482e-04  0 
 0  0  0 

 3.743069e-04  -2.225520e-04  0 
 -2.225520e-04  -3.816947e-04  0 
 0  0  0 

 4.024419e-04  -2.487227e-04  0 
 -2.487227e-04  -4.099987e-04  0 
 0  0  0 

 5.406748e-04  -2.978643e-04  0 
 -2.978643e-04  -4.786887e-04  0 
 0  0  0 

 5.257939e-04  -2.060801e-04  0 
 -2.060801e-04  -6.206469e-04  0 
 0  0  0 

 6.344338e-04  -6.700501e-04  0 
 -6.700501e-04  -2.771409e-04  0 
 0  0  0 

 4.170226e-04  -4.181600e-04  0 
 -4.181600e-04  -5.078394e-04  0 
 0  0  0 

 5.630601e-04  -2.920179e-04  0 
 -2.920179e-04  -5.742431e-04  0 
 0  0  0 

 5.370753e-04  -3.483794e-04  0 
 -3.483794e-04  -4.533522e-04  0 
 0  0  0 

 3.327963e-01  8.776351e-02  0 
 8.776351e-02  -4.201933e-01  0 
 0  0  0 

 2.810943e-01  -9.801414e-04  0 
 -9.801414e-04  -1.599053e-01  0 
 0  0  0 

 8.490675e-02  8.669935e-03  0 
 8.669935e-03  -6.353208e-02  0 
 0  0  0 

 1.063254e-01  -8.131876e-03  0 
 -8.131876e-03  -6.450863e-02  0 
 0  0  0 

 3.268339e-01  -9.456621e-02  0 
 -9.456621e-02  -4.158996e-01  0 
 0  0  0 

 4.841766e-01  -2.892002e-01  0 
 -2.892002e-01  -9.035358e-02  0 
 0  0  0 

 1.231578e-01  -9.446588e-02  0 
 -9.446588e-02  -2.345221e-01  0 
 0  0  0 

