# vtk DataFile Version 3.1
this is an vtk file created by FEMAC
ASCII
DATASET UNSTRUCTURED_GRID
POINTS 31 FLOAT
4.000000 0.000000 0.000000
4.000000 1.000000 0.000000
3.500000 0.000000 0.000000
3.750000 0.000000 0.000000
4.250000 0.000000 0.000000
4.500000 0.000000 0.000000
4.750000 0.000000 0.000000
4.000000 0.250000 0.000000
4.000000 0.500000 0.000000
4.000000 0.750000 0.000000
4.250000 1.000000 0.000000
4.500000 1.000000 0.000000
3.462570 0.272476 0.000000
3.787596 0.660045 0.000000
3.828307 0.162952 0.000000
3.638134 0.825570 0.000000
3.502535 0.594871 0.000000
3.746177 0.372389 0.000000
3.660592 0.165804 0.000000
3.835146 0.847123 0.000000
4.462570 0.272476 0.000000
4.214699 0.660302 0.000000
4.828307 0.162952 0.000000
4.638134 0.825570 0.000000
4.371728 0.825957 0.000000
4.502535 0.594871 0.000000
4.217467 0.400442 0.000000
4.746177 0.372389 0.000000
4.660592 0.165804 0.000000
4.167285 0.847252 0.000000
4.238340 0.153820 0.000000
CELLS 43 172 
3 13  8  9
3 14  3  0
3 7 14  0
3 16 13 15
3 13 17  8
3 17 16 12
3 13 16 17
3 17  7  8
3 14  7 17
3 14 18  3
3 9 19 13
3 19  9  1
3 18 17 12
3 14 17 18
3 15 13 19
3 18  2  3
3 2 18 12
3 8 21  9
3 11 24 23
3 26 21  8
3 25 26 20
3 25 21 26
3 27 25 20
3 10 24 11
3 7 26  8
3 25 24 21
3 23 24 25
3 22 28  6
3 9 29  1
3 29 10  1
3 29  9 21
3 28 27 20
3 22 27 28
3 29 24 10
3 21 24 29
3 28  5  6
3 5 28 20
3 4 30  0
3 30  7  0
3 5 30  4
3 26 30 20
3 30 26  7
3 5 20 30
CELL_TYPES 43
5 5 5 5 5 5 5 5 5 5 5 5 5 5 5 5 5 5 5 5 5 5 5 5 5 5 5 5 5 5 5 5 5 5 5 5 5 5 5 5 5 5 5 
POINT_DATA 31
VECTORS displacement_ITER1 FLOAT
 -2.095247e-01  -2.240652e-01  0 
 -1.070709e-01  -2.239911e-01  0 
 -1.712844e-01  -1.968410e-01  0 
 -1.926568e-01  -2.107664e-01  0 
 -2.095462e-01  -2.496698e-01  0 
 -2.095662e-01  -2.752834e-01  0 
 -2.095835e-01  -3.009126e-01  0 
 -1.839225e-01  -2.240384e-01  0 
 -1.583108e-01  -2.240225e-01  0 
 -1.326918e-01  -2.240081e-01  0 
 -1.070829e-01  -2.496195e-01  0 
 -1.070985e-01  -2.752420e-01  0 
 -1.646455e-01  -1.759546e-01  0 
 -1.379163e-01  -1.985389e-01  0 
 -1.871712e-01  -2.070408e-01  0 
 -1.121797e-01  -1.736437e-01  0 
 -1.381195e-01  -1.645925e-01  0 
 -1.666768e-01  -1.957762e-01  0 
 -1.785420e-01  -1.934282e-01  0 
 -1.184452e-01  -2.012557e-01  0 
 -1.816404e-01  -2.714346e-01  0 
 -1.418920e-01  -2.460182e-01  0 
 -1.928795e-01  -3.089316e-01  0 
 -1.249718e-01  -2.894018e-01  0 
 -1.249233e-01  -2.621055e-01  0 
 -1.486031e-01  -2.755181e-01  0 
 -1.685190e-01  -2.463106e-01  0 
 -1.714103e-01  -3.005017e-01  0 
 -1.925806e-01  -2.917364e-01  0 
 -1.227330e-01  -2.411491e-01  0 
 -1.937892e-01  -2.484615e-01  0 
VECTORS displacement_ITER2 FLOAT
 -1.522043e-01  -2.001334e-01  0 
 -6.846202e-02  -2.000280e-01  0 
 -1.158230e-01  -1.800214e-01  0 
 -1.362934e-01  -1.905157e-01  0 
 -1.522239e-01  -2.210490e-01  0 
 -1.522416e-01  -2.419728e-01  0 
 -1.522571e-01  -2.629089e-01  0 
 -1.312912e-01  -2.001080e-01  0 
 -1.103658e-01  -2.000882e-01  0 
 -8.942192e-02  -2.000616e-01  0 
 -6.848204e-02  -2.210000e-01  0 
 -6.850408e-02  -2.419653e-01  0 
 -1.126197e-01  -1.601272e-01  0 
 -9.224969e-02  -1.779813e-01  0 
 -1.331291e-01  -1.860579e-01  0 
 -6.654655e-02  -1.529956e-01  0 
 -9.064448e-02  -1.474659e-01  0 
 -1.163420e-01  -1.761989e-01  0 
 -1.248606e-01  -1.749804e-01  0 
 -7.536002e-02  -1.786947e-01  0 
 -1.294278e-01  -2.388295e-01  0 
 -9.694993e-02  -2.180633e-01  0 
 -1.386088e-01  -2.694616e-01  0 
 -8.311509e-02  -2.535340e-01  0 
 -8.307849e-02  -2.312176e-01  0 
 -1.024354e-01  -2.421743e-01  0 
 -1.187091e-01  -2.183033e-01  0 
 -1.210667e-01  -2.625773e-01  0 
 -1.383652e-01  -2.554134e-01  0 
 -8.128240e-02  -2.140761e-01  0 
 -1.393525e-01  -2.200608e-01  0 
VECTORS displacement_ITER3 FLOAT
 -1.031797e-01  -1.187436e-01  0 
 -7.547326e-02  -1.186107e-01  0 
 -7.073896e-02  -1.261544e-01  0 
 -8.873363e-02  -1.226766e-01  0 
 -1.031976e-01  -1.256445e-01  0 
 -1.032134e-01  -1.325535e-01  0 
 -1.032260e-01  -1.394734e-01  0 
 -9.628076e-02  -1.187196e-01  0 
 -8.936943e-02  -1.186985e-01  0 
 -8.243461e-02  -1.186621e-01  0 
 -7.550127e-02  -1.255892e-01  0 
 -7.553087e-02  -1.325544e-01  0 
 -8.030802e-02  -1.091968e-01  0 
 -7.971087e-02  -1.095520e-01  0 
 -9.382192e-02  -1.147330e-01  0 
 -6.096236e-02  -9.218498e-02  0 
 -7.467301e-02  -9.461163e-02  0 
 -8.863731e-02  -1.100980e-01  0 
 -8.662320e-02  -1.133602e-01  0 
 -7.260975e-02  -1.063059e-01  0 
 -9.567639e-02  -1.315097e-01  0 
 -8.494034e-02  -1.246373e-01  0 
 -9.871540e-02  -1.416362e-01  0 
 -8.036687e-02  -1.363767e-01  0 
 -8.035294e-02  -1.289921e-01  0 
 -8.675786e-02  -1.326137e-01  0 
 -9.213198e-02  -1.247235e-01  0 
 -9.291731e-02  -1.393569e-01  0 
 -9.863222e-02  -1.369918e-01  0 
 -7.974660e-02  -1.233018e-01  0 
 -9.894951e-02  -1.253111e-01  0 
VECTORS displacement_ITER4 FLOAT
 -1.074272e-01  -1.143857e-01  0 
 -6.897571e-02  -1.142434e-01  0 
 -7.920591e-02  -1.163633e-01  0 
 -9.449424e-02  -1.153087e-01  0 
 -1.074436e-01  -1.239664e-01  0 
 -1.074580e-01  -1.335544e-01  0 
 -1.074704e-01  -1.431517e-01  0 
 -9.784892e-02  -1.143638e-01  0 
 -8.825403e-02  -1.143398e-01  0 
 -7.863105e-02  -1.142988e-01  0 
 -6.900539e-02  -1.239144e-01  0 
 -6.903396e-02  -1.335708e-01  0 
 -8.363871e-02  -1.003930e-01  0 
 -7.709382e-02  -1.044318e-01  0 
 -9.698102e-02  -1.091020e-01  0 
 -5.702466e-02  -8.722319e-02  0 
 -7.364349e-02  -8.765519e-02  0 
 -8.951380e-02  -1.043778e-01  0 
 -9.078058e-02  -1.064555e-01  0 
 -6.802825e-02  -1.013529e-01  0 
 -9.700031e-02  -1.321119e-01  0 
 -8.210266e-02  -1.225833e-01  0 
 -1.012114e-01  -1.461559e-01  0 
 -7.574915e-02  -1.388806e-01  0 
 -7.573207e-02  -1.286267e-01  0 
 -8.462424e-02  -1.336528e-01  0 
 -9.208628e-02  -1.226999e-01  0 
 -9.316553e-02  -1.429996e-01  0 
 -1.010987e-01  -1.397138e-01  0 
 -7.489626e-02  -1.207374e-01  0 
 -1.015469e-01  -1.235090e-01  0 
VECTORS displacement_ITER5 FLOAT
 -7.960077e-02  -7.575713e-02  0 
 -5.323252e-02  -7.562647e-02  0 
 -5.639096e-02  -8.713772e-02  0 
 -6.801299e-02  -8.064164e-02  0 
 -7.961709e-02  -8.232022e-02  0 
 -7.963186e-02  -8.889120e-02  0 
 -7.964471e-02  -9.547338e-02  0 
 -7.304001e-02  -7.573635e-02  0 
 -6.646076e-02  -7.571280e-02  0 
 -5.986056e-02  -7.567602e-02  0 
 -5.325977e-02  -8.226320e-02  0 
 -5.328479e-02  -8.887820e-02  0 
 -6.227408e-02  -7.336367e-02  0 
 -5.822208e-02  -7.197460e-02  0 
 -7.199309e-02  -7.402757e-02  0 
 -4.366520e-02  -6.260230e-02  0 
 -5.613456e-02  -6.284404e-02  0 
 -6.726555e-02  -7.194386e-02  0 
 -6.725344e-02  -7.530612e-02  0 
 -5.234888e-02  -6.861838e-02  0 
 -7.246207e-02  -8.789925e-02  0 
 -6.224482e-02  -8.135934e-02  0 
 -7.535312e-02  -9.753144e-02  0 
 -5.789642e-02  -9.253160e-02  0 
 -5.787698e-02  -8.549826e-02  0 
 -6.397882e-02  -8.895284e-02  0 
 -6.909192e-02  -8.144612e-02  0 
 -6.983507e-02  -9.536299e-02  0 
 -7.527377e-02  -9.311264e-02  0 
 -5.730072e-02  -8.008872e-02  0 
 -7.557655e-02  -8.200339e-02  0 
VECTORS displacement_ITER6 FLOAT
 -7.027022e-02  -5.534191e-02  0 
 -4.052514e-02  -5.520790e-02  0 
 -5.348479e-02  -6.218295e-02  0 
 -6.134679e-02  -5.781956e-02  0 
 -7.028358e-02  -6.274563e-02  0 
 -7.029583e-02  -7.015603e-02  0 
 -7.030816e-02  -7.757839e-02  0 
 -6.286908e-02  -5.532542e-02  0 
 -5.544837e-02  -5.530223e-02  0 
 -4.800441e-02  -5.526242e-02  0 
 -4.055759e-02  -6.269189e-02  0 
 -4.058654e-02  -7.014994e-02  0 
 -5.476276e-02  -5.075974e-02  0 
 -4.699304e-02  -5.193174e-02  0 
 -6.306226e-02  -5.325399e-02  0 
 -3.236308e-02  -4.339145e-02  0 
 -4.606367e-02  -4.256964e-02  0 
 -5.744771e-02  -5.158339e-02  0 
 -5.974204e-02  -5.378137e-02  0 
 -4.041725e-02  -4.852700e-02  0 
 -6.221105e-02  -6.904091e-02  0 
 -5.069216e-02  -6.167143e-02  0 
 -6.546839e-02  -7.989965e-02  0 
 -4.578737e-02  -7.427204e-02  0 
 -4.576516e-02  -6.633976e-02  0 
 -5.264641e-02  -7.023424e-02  0 
 -5.841408e-02  -6.176713e-02  0 
 -5.924555e-02  -7.745481e-02  0 
 -6.537971e-02  -7.491715e-02  0 
 -4.511546e-02  -6.024016e-02  0 
 -6.572608e-02  -6.239145e-02  0 
VECTORS displacement_ITER7 FLOAT
 -4.971444e-02  -3.761866e-02  0 
 -3.655905e-02  -3.747124e-02  0 
 -4.011593e-02  -4.650860e-02  0 
 -4.416927e-02  -4.132302e-02  0 
 -4.972336e-02  -4.086946e-02  0 
 -4.973146e-02  -4.412507e-02  0 
 -4.974171e-02  -4.739294e-02  0 
 -4.646619e-02  -3.760793e-02  0 
 -4.319998e-02  -3.758652e-02  0 
 -3.990483e-02  -3.753966e-02  0 
 -3.660383e-02  -4.081950e-02  0 
 -3.664420e-02  -4.413599e-02  0 
 -4.114445e-02  -3.848402e-02  0 
 -3.720626e-02  -3.744040e-02  0 
 -4.619423e-02  -3.791978e-02  0 
 -2.360785e-02  -2.974661e-02  0 
 -3.536540e-02  -3.135864e-02  0 
 -4.364294e-02  -3.777676e-02  0 
 -4.434307e-02  -3.990110e-02  0 
 -3.298347e-02  -3.255772e-02  0 
 -4.617629e-02  -4.363549e-02  0 
 -4.110681e-02  -4.039065e-02  0 
 -4.761052e-02  -4.841245e-02  0 
 -3.894591e-02  -4.596025e-02  0 
 -3.893039e-02  -4.245441e-02  0 
 -4.197191e-02  -4.417047e-02  0 
 -4.450980e-02  -4.043795e-02  0 
 -4.486891e-02  -4.733176e-02  0 
 -4.756970e-02  -4.621778e-02  0 
 -3.862969e-02  -3.974344e-02  0 
 -4.772170e-02  -4.071189e-02  0 
VECTORS displacement_ITER8 FLOAT
 -4.717449e-02  -3.123627e-02  0 
 -3.841398e-02  -3.108227e-02  0 
 -4.187051e-02  -3.772614e-02  0 
 -4.376671e-02  -3.394389e-02  0 
 -4.718036e-02  -3.338392e-02  0 
 -4.718564e-02  -3.553488e-02  0 
 -4.719455e-02  -3.769743e-02  0 
 -4.502939e-02  -3.122937e-02  0 
 -4.286754e-02  -3.120934e-02  0 
 -4.067227e-02  -3.115873e-02  0 
 -3.846823e-02  -3.333994e-02  0 
 -3.851598e-02  -3.556183e-02  0 
 -4.119121e-02  -3.166431e-02  0 
 -3.750202e-02  -3.142888e-02  0 
 -4.494919e-02  -3.180207e-02  0 
 -2.362642e-02  -2.305819e-02  0 
 -3.540235e-02  -2.542825e-02  0 
 -4.304977e-02  -3.195233e-02  0 
 -4.392314e-02  -3.341566e-02  0 
 -3.359270e-02  -2.605369e-02  0 
 -4.483511e-02  -3.521327e-02  0 
 -4.148106e-02  -3.306849e-02  0 
 -4.578339e-02  -3.837125e-02  0 
 -4.004628e-02  -3.677287e-02  0 
 -4.003368e-02  -3.444334e-02  0 
 -4.205551e-02  -3.557705e-02  0 
 -4.373650e-02  -3.310069e-02  0 
 -4.396682e-02  -3.765395e-02  0 
 -4.575566e-02  -3.691813e-02  0 
 -3.982400e-02  -3.262938e-02  0 
 -4.585795e-02  -3.327984e-02  0 
VECTORS displacement_ITER9 FLOAT
 -3.236398e-02  -1.943781e-02  0 
 -2.707494e-02  -1.929018e-02  0 
 -2.933462e-02  -2.540874e-02  0 
 -3.008924e-02  -2.189118e-02  0 
 -3.236823e-02  -2.071568e-02  0 
 -3.237216e-02  -2.199588e-02  0 
 -3.238066e-02  -2.328717e-02  0 
 -3.108873e-02  -1.943322e-02  0 
 -2.979862e-02  -1.941582e-02  0 
 -2.847447e-02  -1.936729e-02  0 
 -2.713967e-02  -2.067906e-02  0 
 -2.719341e-02  -2.202489e-02  0 
 -2.844414e-02  -2.072504e-02  0 
 -2.546346e-02  -2.017268e-02  0 
 -3.105796e-02  -2.031298e-02  0 
 -1.313608e-02  -1.281835e-02  0 
 -2.364765e-02  -1.540359e-02  0 
 -2.986787e-02  -2.073982e-02  0 
 -3.052370e-02  -2.200004e-02  0 
 -2.213377e-02  -1.502770e-02  0 
 -3.097086e-02  -2.180552e-02  0 
 -2.896925e-02  -2.052954e-02  0 
 -3.153765e-02  -2.368823e-02  0 
 -2.811087e-02  -2.275161e-02  0 
 -2.809862e-02  -2.135803e-02  0 
 -2.931351e-02  -2.203185e-02  0 
 -3.031888e-02  -2.054832e-02  0 
 -3.044989e-02  -2.325634e-02  0 
 -3.151957e-02  -2.281947e-02  0 
 -2.796208e-02  -2.025917e-02  0 
 -3.158119e-02  -2.065322e-02  0 
VECTORS displacement_ITER10 FLOAT
 -3.155879e-02  -1.535550e-02  0 
 -2.207056e-02  -1.522316e-02  0 
 -2.831658e-02  -2.017047e-02  0 
 -2.911845e-02  -1.702865e-02  0 
 -3.156328e-02  -1.768385e-02  0 
 -3.156765e-02  -2.001442e-02  0 
 -3.157652e-02  -2.235540e-02  0 
 -2.923315e-02  -1.535090e-02  0 
 -2.689362e-02  -1.533547e-02  0 
 -2.452306e-02  -1.529324e-02  0 
 -2.214173e-02  -1.765224e-02  0 
 -2.219685e-02  -2.003176e-02  0 
 -2.708303e-02  -1.569382e-02  0 
 -2.271974e-02  -1.565916e-02  0 
 -2.961782e-02  -1.560816e-02  0 
 -1.233765e-02  -1.008374e-02  0 
 -2.205579e-02  -1.136116e-02  0 
 -2.777410e-02  -1.583561e-02  0 
 -2.913251e-02  -1.692615e-02  0 
 -1.905406e-02  -1.162466e-02  0 
 -2.902123e-02  -1.966601e-02  0 
 -2.538985e-02  -1.735172e-02  0 
 -3.004966e-02  -2.308550e-02  0 
 -2.384164e-02  -2.133892e-02  0 
 -2.382477e-02  -1.883645e-02  0 
 -2.600781e-02  -2.005885e-02  0 
 -2.783079e-02  -1.737966e-02  0 
 -2.808108e-02  -2.230800e-02  0 
 -3.001896e-02  -2.151213e-02  0 
 -2.359998e-02  -1.688854e-02  0 
 -3.012981e-02  -1.757220e-02  0 
VECTORS displacement_ITER11 FLOAT
 -2.644497e-02  -7.616427e-03  0 
 -1.375793e-02  -7.496669e-03  0 
 -2.284069e-02  -1.134330e-02  0 
 -2.383685e-02  -8.621198e-03  0 
 -2.644959e-02  -1.074541e-02  0 
 -2.645414e-02  -1.387652e-02  0 
 -2.646284e-02  -1.701720e-02  0 
 -2.331875e-02  -7.611802e-03  0 
 -2.017964e-02  -7.597908e-03  0 
 -1.701212e-02  -7.560867e-03  0 
 -1.383398e-02  -1.071731e-02  0 
 -1.388981e-02  -1.388404e-02  0 
 -2.147887e-02  -7.042051e-03  0 
 -1.620413e-02  -7.443029e-03  0 
 -2.398985e-02  -7.311645e-03  0 
 -7.529134e-03  -3.230434e-03  0 
 -1.641239e-02  -3.491837e-03  0 
 -2.165585e-02  -7.312424e-03  0 
 -2.348806e-02  -8.250850e-03  0 
 -1.231338e-02  -4.419199e-03  0 
 -2.303525e-02  -1.340769e-02  0 
 -1.816208e-02  -1.030192e-02  0 
 -2.441523e-02  -1.799808e-02  0 
 -1.608873e-02  -1.563369e-02  0 
 -1.606815e-02  -1.228638e-02  0 
 -1.898857e-02  -1.392710e-02  0 
 -2.143444e-02  -1.033689e-02  0 
 -2.177583e-02  -1.695757e-02  0 
 -2.437504e-02  -1.588804e-02  0 
 -1.577619e-02  -9.691960e-03  0 
 -2.452348e-02  -1.059633e-02  0 
VECTORS displacement_ITER12 FLOAT
 -2.210172e-02  -7.251938e-03  0 
 -1.056905e-02  -7.138301e-03  0 
 -1.814884e-02  -1.104149e-02  0 
 -1.946014e-02  -8.296323e-03  0 
 -2.210603e-02  -1.009177e-02  0 
 -2.211021e-02  -1.293351e-02  0 
 -2.211821e-02  -1.578373e-02  0 
 -1.926470e-02  -7.247594e-03  0 
 -1.641584e-02  -7.234636e-03  0 
 -1.353907e-02  -7.200100e-03  0 
 -1.065155e-02  -1.006575e-02  0 
 -1.071022e-02  -1.293656e-02  0 
 -1.758700e-02  -7.070797e-03  0 
 -1.311406e-02  -7.034061e-03  0 
 -1.981215e-02  -6.913449e-03  0 
 -6.058897e-03  -3.767332e-03  0 
 -1.357963e-02  -3.882235e-03  0 
 -1.781548e-02  -6.847621e-03  0 
 -1.924456e-02  -7.829810e-03  0 
 -9.607381e-03  -4.641179e-03  0 
 -1.900712e-02  -1.250807e-02  0 
 -1.458322e-02  -9.691361e-03  0 
 -2.026028e-02  -1.667418e-02  0 
 -1.270392e-02  -1.452629e-02  0 
 -1.268185e-02  -1.149282e-02  0 
 -1.533312e-02  -1.298130e-02  0 
 -1.755446e-02  -9.721342e-03  0 
 -1.786341e-02  -1.572931e-02  0 
 -2.022337e-02  -1.475887e-02  0 
 -1.241401e-02  -9.139193e-03  0 
 -2.035797e-02  -9.956412e-03  0 
VECTORS displacement_ITER13 FLOAT
 -1.232761e-02  -8.097823e-03  0 
 -8.311203e-03  -7.983569e-03  0 
 -8.709794e-03  -1.297812e-02  0 
 -1.017233e-02  -9.909292e-03  0 
 -1.233064e-02  -9.056124e-03  0 
 -1.233343e-02  -1.001568e-02  0 
 -1.234023e-02  -1.098295e-02  0 
 -1.137230e-02  -8.094918e-03  0 
 -1.040661e-02  -8.082735e-03  0 
 -9.410606e-03  -8.047452e-03  0 
 -8.402882e-03  -9.032167e-03  0 
 -8.467622e-03  -1.002354e-02  0 
 -9.896977e-03  -9.883949e-03  0 
 -8.568308e-03  -8.365644e-03  0 
 -1.128983e-02  -8.422599e-03  0 
 -3.202486e-03  -5.441993e-03  0 
 -8.432643e-03  -6.704794e-03  0 
 -1.080629e-02  -8.517856e-03  0 
 -1.071414e-02  -9.688285e-03  0 
 -6.347632e-03  -6.130747e-03  0 
 -1.128244e-02  -9.873231e-03  0 
 -9.780011e-03  -8.925959e-03  0 
 -1.170983e-02  -1.128416e-02  0 
 -9.145674e-03  -1.057219e-02  0 
 -9.125537e-03  -9.546818e-03  0 
 -1.003604e-02  -1.004834e-02  0 
 -1.079459e-02  -8.932686e-03  0 
 -1.088978e-02  -1.095831e-02  0 
 -1.169471e-02  -1.063206e-02  0 
 -9.015387e-03  -8.731212e-03  0 
 -1.174060e-02  -9.009453e-03  0 
VECTORS displacement_ITER14 FLOAT
 -1.125090e-02  -6.041099e-03  0 
 -7.103008e-03  -5.932283e-03  0 
 -8.061354e-03  -9.989203e-03  0 
 -9.364805e-03  -7.443105e-03  0 
 -1.125354e-02  -7.032498e-03  0 
 -1.125608e-02  -8.024912e-03  0 
 -1.126311e-02  -9.025655e-03  0 
 -1.026269e-02  -6.038964e-03  0 
 -9.264613e-03  -6.027526e-03  0 
 -8.236584e-03  -5.993614e-03  0 
 -7.196829e-03  -7.009843e-03  0 
 -7.262609e-03  -8.031636e-03  0 
 -9.037161e-03  -7.338414e-03  0 
 -7.708755e-03  -6.085252e-03  0 
 -1.025168e-02  -6.188725e-03  0 
 -3.326063e-03  -3.682239e-03  0 
 -7.743650e-03  -4.684385e-03  0 
 -9.731717e-03  -6.199156e-03  0 
 -9.747977e-03  -7.188619e-03  0 
 -5.672797e-03  -4.306802e-03  0 
 -1.016904e-02  -7.877779e-03  0 
 -8.616702e-03  -6.899594e-03  0 
 -1.061094e-02  -9.337121e-03  0 
 -7.962304e-03  -8.598999e-03  0 
 -7.941107e-03  -7.540408e-03  0 
 -8.880816e-03  -8.058939e-03  0 
 -9.665052e-03  -6.905720e-03  0 
 -9.762669e-03  -8.999769e-03  0 
 -1.059530e-02  -8.662499e-03  0 
 -7.827740e-03  -6.699857e-03  0 
 -1.064316e-02  -6.984514e-03  0 
VECTORS displacement_ITER15 FLOAT
 -8.993608e-03  -6.606538e-03  0 
 -3.722882e-03  -6.509014e-03  0 
 -6.694735e-03  -8.986596e-03  0 
 -7.554923e-03  -7.277643e-03  0 
 -8.995801e-03  -7.879630e-03  0 
 -8.998148e-03  -9.153445e-03  0 
 -9.005903e-03  -1.043691e-02  0 
 -7.724051e-03  -6.605566e-03  0 
 -6.445182e-03  -6.595293e-03  0 
 -5.137714e-03  -6.564305e-03  0 
 -3.818648e-03  -7.858910e-03  0 
 -3.884707e-03  -9.156733e-03  0 
 -7.023582e-03  -7.089308e-03  0 
 -5.284857e-03  -6.358278e-03  0 
 -7.940183e-03  -6.446996e-03  0 
 -2.788039e-03  -5.239242e-03  0 
 -5.762183e-03  -5.535128e-03  0 
 -7.175235e-03  -6.365858e-03  0 
 -7.612979e-03  -7.037832e-03  0 
 -3.563529e-03  -5.441810e-03  0 
 -7.603812e-03  -8.964360e-03  0 
 -5.616474e-03  -7.709571e-03  0 
 -8.169468e-03  -1.083640e-02  0 
 -4.779001e-03  -9.881130e-03  0 
 -4.755644e-03  -8.525353e-03  0 
 -5.953618e-03  -9.191432e-03  0 
 -6.956766e-03  -7.717561e-03  0 
 -7.084098e-03  -1.040514e-02  0 
 -8.150270e-03  -9.971970e-03  0 
 -4.618122e-03  -7.458894e-03  0 
 -8.212037e-03  -7.818742e-03  0 
VECTORS displacement_ITER16 FLOAT
 -6.672175e-03  -9.571001e-03  0 
 -2.987352e-03  -9.474327e-03  0 
 -5.771680e-03  -1.141476e-02  0 
 -5.892782e-03  -1.006081e-02  0 
 -6.673517e-03  -1.044625e-02  0 
 -6.675071e-03  -1.132187e-02  0 
 -6.682513e-03  -1.220736e-02  0 
 -5.800520e-03  -9.571150e-03  0 
 -4.919836e-03  -9.560904e-03  0 
 -4.009332e-03  -9.529020e-03  0 
 -3.086205e-03  -1.042602e-02  0 
 -3.153881e-03  -1.132935e-02  0 
 -5.614640e-03  -1.028356e-02  0 
 -4.226215e-03  -9.483081e-03  0 
 -6.054799e-03  -9.590790e-03  0 
 -2.777681e-03  -8.950434e-03  0 
 -4.621052e-03  -9.377866e-03  0 
 -5.512050e-03  -9.649721e-03  0 
 -5.989441e-03  -1.016109e-02  0 
 -3.062900e-03  -8.754473e-03  0 
 -5.714850e-03  -1.119319e-02  0 
 -4.345770e-03  -1.033454e-02  0 
 -6.105391e-03  -1.248221e-02  0 
 -3.770550e-03  -1.183385e-02  0 
 -3.747918e-03  -1.090128e-02  0 
 -4.578408e-03  -1.135843e-02  0 
 -5.272578e-03  -1.033735e-02  0 
 -5.353347e-03  -1.218174e-02  0 
 -6.090904e-03  -1.188481e-02  0 
 -3.642927e-03  -1.015925e-02  0 
 -6.134657e-03  -1.040447e-02  0 
VECTORS displacement_ITER17 FLOAT
 -4.454558e-03  -6.952013e-03  0 
 -1.914966e-03  -6.855124e-03  0 
 -4.418068e-03  -8.122407e-03  0 
 -4.133363e-03  -7.221599e-03  0 
 -4.455204e-03  -7.539630e-03  0 
 -4.456056e-03  -8.127311e-03  0 
 -4.463164e-03  -8.725013e-03  0 
 -3.870498e-03  -6.952913e-03  0 
 -3.277782e-03  -6.942612e-03  0 
 -2.654076e-03  -6.909709e-03  0 
 -2.016730e-03  -7.519797e-03  0 
 -2.086464e-03  -8.138181e-03  0 
 -3.904515e-03  -7.493961e-03  0 
 -2.851782e-03  -6.779431e-03  0 
 -4.117602e-03  -7.022875e-03  0 
 -1.957092e-03  -6.329860e-03  0 
 -3.044798e-03  -6.950271e-03  0 
 -3.706033e-03  -7.099602e-03  0 
 -4.184779e-03  -7.455025e-03  0 
 -2.062616e-03  -6.154765e-03  0 
 -3.809932e-03  -8.042433e-03  0 
 -2.887877e-03  -7.470167e-03  0 
 -4.073641e-03  -8.909502e-03  0 
 -2.502182e-03  -8.483451e-03  0 
 -2.480000e-03  -7.857150e-03  0 
 -3.044961e-03  -8.162872e-03  0 
 -3.515673e-03  -7.469169e-03  0 
 -3.563121e-03  -8.703613e-03  0 
 -4.062601e-03  -8.505423e-03  0 
 -2.398244e-03  -7.349322e-03  0 
 -4.093462e-03  -7.511747e-03  0 
VECTORS displacement_ITER18 FLOAT
 -4.628356e-03  -6.496580e-03  0 
 -1.221699e-03  -6.401757e-03  0 
 -4.945018e-03  -7.182559e-03  0 
 -4.430250e-03  -6.531888e-03  0 
 -4.628945e-03  -7.300919e-03  0 
 -4.629782e-03  -8.105313e-03  0 
 -4.636995e-03  -8.920002e-03  0 
 -3.827550e-03  -6.497602e-03  0 
 -3.018211e-03  -6.487381e-03  0 
 -2.178436e-03  -6.455099e-03  0 
 -1.324758e-03  -7.281273e-03  0 
 -1.394578e-03  -8.114266e-03  0 
 -4.014319e-03  -6.740284e-03  0 
 -2.609154e-03  -6.234924e-03  0 
 -4.195185e-03  -6.475565e-03  0 
 -2.275129e-03  -6.246279e-03  0 
 -2.931289e-03  -6.589258e-03  0 
 -3.579906e-03  -6.545708e-03  0 
 -4.335012e-03  -6.799144e-03  0 
 -1.918987e-03  -5.859523e-03  0 
 -3.747425e-03  -7.987971e-03  0 
 -2.489265e-03  -7.201065e-03  0 
 -4.106147e-03  -9.172198e-03  0 
 -1.960986e-03  -8.579874e-03  0 
 -1.937930e-03  -7.723589e-03  0 
 -2.702992e-03  -8.142865e-03  0 
 -3.342263e-03  -7.202320e-03  0 
 -3.414109e-03  -8.894820e-03  0 
 -4.092563e-03  -8.622658e-03  0 
 -1.837747e-03  -7.039999e-03  0 
 -4.133837e-03  -7.262951e-03  0 
VECTORS displacement_ITER19 FLOAT
 -4.672480e-03  -7.531704e-03  0 
 -1.247629e-03  -7.437265e-03  0 
 -5.076004e-03  -8.214799e-03  0 
 -4.497704e-03  -7.581038e-03  0 
 -4.673134e-03  -8.340552e-03  0 
 -4.674084e-03  -9.149495e-03  0 
 -4.681477e-03  -9.968972e-03  0 
 -3.867189e-03  -7.532757e-03  0 
 -3.053518e-03  -7.522695e-03  0 
 -2.209942e-03  -7.490933e-03  0 
 -1.352297e-03  -8.321262e-03  0 
 -1.422362e-03  -9.156591e-03  0 
 -4.113180e-03  -7.882106e-03  0 
 -2.738690e-03  -7.339024e-03  0 
 -4.243795e-03  -7.538676e-03  0 
 -2.877064e-03  -7.760134e-03  0 
 -3.109640e-03  -7.948577e-03  0 
 -3.617086e-03  -7.639219e-03  0 
 -4.400919e-03  -7.880771e-03  0 
 -2.224446e-03  -7.139557e-03  0 
 -3.786647e-03  -9.031335e-03  0 
 -2.521715e-03  -8.240225e-03  0 
 -4.147591e-03  -1.022255e-02  0 
 -1.991239e-03  -9.625091e-03  0 
 -1.967683e-03  -8.765125e-03  0 
 -2.736386e-03  -9.186830e-03  0 
 -3.379190e-03  -8.241325e-03  0 
 -3.451481e-03  -9.943383e-03  0 
 -4.133844e-03  -9.669762e-03  0 
 -1.867302e-03  -8.079031e-03  0 
 -4.175201e-03  -8.302311e-03  0 
VECTORS displacement_ITER20 FLOAT
 -4.508511e-03  -5.649683e-03  0 
 -1.332972e-03  -5.555855e-03  0 
 -4.679739e-03  -5.845103e-03  0 
 -4.332165e-03  -5.543734e-03  0 
 -4.509103e-03  -6.396350e-03  0 
 -4.510069e-03  -7.142997e-03  0 
 -4.517804e-03  -7.900657e-03  0 
 -3.765530e-03  -5.651004e-03  0 
 -3.014634e-03  -5.641527e-03  0 
 -2.233942e-03  -5.610297e-03  0 
 -1.438971e-03  -6.378495e-03  0 
 -1.510241e-03  -7.149977e-03  0 
 -3.888306e-03  -5.592020e-03  0 
 -2.763729e-03  -5.260726e-03  0 
 -4.074806e-03  -5.527979e-03  0 
 -3.033883e-03  -5.564017e-03  0 
 -3.073674e-03  -5.684174e-03  0 
 -3.491239e-03  -5.510738e-03  0 
 -4.152002e-03  -5.666891e-03  0 
 -2.292700e-03  -5.240135e-03  0 
 -3.690303e-03  -7.034157e-03  0 
 -2.522923e-03  -6.305854e-03  0 
 -4.024240e-03  -8.134669e-03  0 
 -2.034537e-03  -7.583705e-03  0 
 -2.010652e-03  -6.791669e-03  0 
 -2.720718e-03  -7.180082e-03  0 
 -3.315050e-03  -6.305583e-03  0 
 -3.379757e-03  -7.875331e-03  0 
 -4.011023e-03  -7.623258e-03  0 
 -1.915584e-03  -6.156977e-03  0 
 -4.049417e-03  -6.361038e-03  0 
VECTORS displacement_ITER21 FLOAT
 -5.254074e-03  -5.780404e-03  0 
 -1.427884e-03  -5.685853e-03  0 
 -4.684653e-03  -6.106129e-03  0 
 -4.756217e-03  -5.740794e-03  0 
 -5.255086e-03  -6.689944e-03  0 
 -5.256460e-03  -7.599654e-03  0 
 -5.264405e-03  -8.520384e-03  0 
 -4.348292e-03  -5.781273e-03  0 
 -3.434575e-03  -5.771787e-03  0 
 -2.491492e-03  -5.741041e-03  0 
 -1.534086e-03  -6.672066e-03  0 
 -1.605421e-03  -7.604529e-03  0 
 -4.243376e-03  -5.628940e-03  0 
 -3.120676e-03  -5.329652e-03  0 
 -4.613554e-03  -5.553603e-03  0 
 -3.524628e-03  -5.814005e-03  0 
 -3.533588e-03  -5.656415e-03  0 
 -3.949995e-03  -5.455231e-03  0 
 -4.541894e-03  -5.657761e-03  0 
 -2.590520e-03  -5.518772e-03  0 
 -4.258811e-03  -7.466015e-03  0 
 -2.838501e-03  -6.575909e-03  0 
 -4.664636e-03  -8.805596e-03  0 
 -2.243185e-03  -8.128695e-03  0 
 -2.218580e-03  -7.163761e-03  0 
 -3.078859e-03  -7.637679e-03  0 
 -3.799890e-03  -6.577457e-03  0 
 -3.883143e-03  -8.492541e-03  0 
 -4.649409e-03  -8.184588e-03  0 
 -2.110015e-03  -6.396452e-03  0 
 -4.695112e-03  -6.646753e-03  0 
VECTORS displacement_ITER22 FLOAT
 -5.418676e-03  -5.536635e-03  0 
 -1.798130e-03  -5.438276e-03  0 
 -4.618970e-03  -6.011304e-03  0 
 -4.833642e-03  -5.588946e-03  0 
 -5.419776e-03  -6.394371e-03  0 
 -5.421192e-03  -7.252365e-03  0 
 -5.428985e-03  -8.121161e-03  0 
 -4.564737e-03  -5.537389e-03  0 
 -3.702797e-03  -5.527711e-03  0 
 -2.811060e-03  -5.496202e-03  0 
 -1.904392e-03  -6.376444e-03  0 
 -1.976099e-03  -7.258495e-03  0 
 -4.410216e-03  -5.519086e-03  0 
 -3.406624e-03  -5.227668e-03  0 
 -4.779353e-03  -5.332861e-03  0 
 -3.831298e-03  -5.849942e-03  0 
 -3.867124e-03  -5.537218e-03  0 
 -4.183913e-03  -5.248078e-03  0 
 -4.663038e-03  -5.463490e-03  0 
 -2.897867e-03  -5.497388e-03  0 
 -4.479952e-03  -7.126446e-03  0 
 -3.139984e-03  -6.287416e-03  0 
 -4.863062e-03  -8.390433e-03  0 
 -2.578378e-03  -7.754102e-03  0 
 -2.554063e-03  -6.843451e-03  0 
 -3.366692e-03  -7.290175e-03  0 
 -4.047586e-03  -6.288505e-03  0 
 -4.124703e-03  -8.094610e-03  0 
 -4.848485e-03  -7.804091e-03  0 
 -2.449954e-03  -6.117109e-03  0 
 -4.891672e-03  -6.353543e-03  0 
VECTORS displacement_ITER23 FLOAT
 -6.234076e-03  -4.558146e-03  0 
 -1.641485e-03  -4.456255e-03  0 
 -5.029530e-03  -5.235973e-03  0 
 -5.415576e-03  -4.666179e-03  0 
 -6.235537e-03  -5.658624e-03  0 
 -6.237250e-03  -6.759611e-03  0 
 -6.245086e-03  -7.871412e-03  0 
 -5.137456e-03  -4.558455e-03  0 
 -4.032347e-03  -4.548206e-03  0 
 -2.897143e-03  -4.515868e-03  0 
 -1.746559e-03  -5.639560e-03  0 
 -1.817973e-03  -6.765816e-03  0 
 -4.902365e-03  -4.548266e-03  0 
 -3.587053e-03  -4.326425e-03  0 
 -5.390288e-03  -4.298327e-03  0 
 -3.952473e-03  -5.168017e-03  0 
 -4.224942e-03  -4.549107e-03  0 
 -4.646867e-03  -4.211462e-03  0 
 -5.214981e-03  -4.465686e-03  0 
 -2.932238e-03  -4.691997e-03  0 
 -5.031091e-03  -6.597122e-03  0 
 -3.313790e-03  -5.516291e-03  0 
 -5.520778e-03  -8.216997e-03  0 
 -2.591158e-03  -7.396527e-03  0 
 -2.566504e-03  -6.225307e-03  0 
 -3.604388e-03  -6.799746e-03  0 
 -4.474253e-03  -5.520666e-03  0 
 -4.578613e-03  -7.841419e-03  0 
 -5.503430e-03  -7.467475e-03  0 
 -2.441806e-03  -5.299029e-03  0 
 -5.558019e-03  -5.606236e-03  0 
VECTORS displacement_ITER24 FLOAT
 -5.990250e-03  -4.306428e-03  0 
 -2.143287e-03  -4.198685e-03  0 
 -4.359291e-03  -5.675055e-03  0 
 -4.975151e-03  -4.766735e-03  0 
 -5.991908e-03  -5.219613e-03  0 
 -5.993687e-03  -6.133494e-03  0 
 -6.001267e-03  -7.057953e-03  0 
 -5.080920e-03  -4.306323e-03  0 
 -4.162684e-03  -4.295223e-03  0 
 -3.213212e-03  -4.261016e-03  0 
 -2.247886e-03  -5.198892e-03  0 
 -2.319644e-03  -6.142102e-03  0 
 -4.638373e-03  -4.774733e-03  0 
 -3.705104e-03  -4.234458e-03  0 
 -5.202015e-03  -4.201436e-03  0 
 -3.785921e-03  -4.882971e-03  0 
 -4.172891e-03  -4.475217e-03  0 
 -4.618994e-03  -4.159615e-03  0 
 -4.935326e-03  -4.550199e-03  0 
 -3.113926e-03  -4.444351e-03  0 
 -4.991609e-03  -5.999063e-03  0 
 -3.564098e-03  -5.102748e-03  0 
 -5.399058e-03  -7.345138e-03  0 
 -2.963950e-03  -6.669778e-03  0 
 -2.940035e-03  -5.695367e-03  0 
 -3.806076e-03  -6.172197e-03  0 
 -4.530541e-03  -5.105643e-03  0 
 -4.613751e-03  -7.031472e-03  0 
 -5.384001e-03  -6.721238e-03  0 
 -2.830789e-03  -4.919385e-03  0 
 -5.429645e-03  -5.175855e-03  0 
VECTORS displacement_ITER25 FLOAT
 -7.358385e-03  -3.921315e-03  0 
 -2.223472e-03  -3.810732e-03  0 
 -4.703650e-03  -5.850076e-03  0 
 -5.814304e-03  -4.619119e-03  0 
 -7.360763e-03  -5.156559e-03  0 
 -7.363115e-03  -6.392923e-03  0 
 -7.370637e-03  -7.639506e-03  0 
 -6.126930e-03  -3.920113e-03  0 
 -4.885940e-03  -3.908004e-03  0 
 -3.613885e-03  -3.873303e-03  0 
 -2.326087e-03  -5.133679e-03  0 
 -2.396223e-03  -6.399884e-03  0 
 -5.271726e-03  -4.407388e-03  0 
 -4.147635e-03  -3.754556e-03  0 
 -6.216264e-03  -3.752391e-03  0 
 -3.964222e-03  -4.337770e-03  0 
 -4.611978e-03  -3.803929e-03  0 
 -5.412445e-03  -3.644842e-03  0 
 -5.749293e-03  -4.186512e-03  0 
 -3.394988e-03  -3.986401e-03  0 
 -6.009614e-03  -6.209742e-03  0 
 -4.080761e-03  -4.991888e-03  0 
 -6.558488e-03  -8.027867e-03  0 
 -3.267208e-03  -7.106820e-03  0 
 -3.242822e-03  -5.786874e-03  0 
 -4.407826e-03  -6.433641e-03  0 
 -5.382860e-03  -4.999406e-03  0 
 -5.503273e-03  -7.608776e-03  0 
 -6.539819e-03  -7.187782e-03  0 
 -3.106495e-03  -4.746747e-03  0 
 -6.600267e-03  -5.097322e-03  0 
VECTORS displacement_ITER26 FLOAT
 -6.970723e-03  -3.409665e-03  0 
 -2.384979e-03  -3.295566e-03  0 
 -3.842206e-03  -5.632101e-03  0 
 -5.246409e-03  -4.314952e-03  0 
 -6.973244e-03  -4.507361e-03  0 
 -6.975622e-03  -5.606283e-03  0 
 -6.982842e-03  -6.714996e-03  0 
 -5.876719e-03  -3.408051e-03  0 
 -4.773020e-03  -3.395335e-03  0 
 -3.637744e-03  -3.359577e-03  0 
 -2.486643e-03  -4.483494e-03  0 
 -2.556082e-03  -5.615074e-03  0 
 -4.697910e-03  -3.962818e-03  0 
 -3.945503e-03  -3.184915e-03  0 
 -5.829948e-03  -3.297775e-03  0 
 -3.335919e-03  -3.284498e-03  0 
 -4.119637e-03  -3.021594e-03  0 
 -5.109889e-03  -3.152224e-03  0 
 -5.235420e-03  -3.767075e-03  0 
 -3.226602e-03  -3.268914e-03  0 
 -5.772145e-03  -5.443699e-03  0 
 -4.056123e-03  -4.361176e-03  0 
 -6.260456e-03  -7.060456e-03  0 
 -3.332524e-03  -6.246063e-03  0 
 -3.308875e-03  -5.070515e-03  0 
 -4.347530e-03  -5.645611e-03  0 
 -5.215583e-03  -4.367693e-03  0 
 -5.320821e-03  -6.687167e-03  0 
 -6.243575e-03  -6.312872e-03  0 
 -3.184172e-03  -4.141131e-03  0 
 -6.297415e-03  -4.454474e-03  0 
VECTORS displacement_ITER27 FLOAT
 -7.682528e-03  -3.261846e-03  0 
 -2.451021e-03  -3.148890e-03  0 
 -4.105839e-03  -5.446957e-03  0 
 -5.753197e-03  -4.174510e-03  0 