# vtk DataFile Version 3.1
this is an vtk file created by FEMAC
ASCII
DATASET UNSTRUCTURED_GRID
POINTS 32 FLOAT
3.000000 3.000000 0.000000
3.000000 4.000000 0.000000
2.750000 3.000000 0.000000
3.000000 2.500000 0.000000
3.000000 2.750000 0.000000
3.000000 3.250000 0.000000
3.000000 3.500000 0.000000
3.000000 3.750000 0.000000
3.250000 3.000000 0.000000
3.500000 3.000000 0.000000
3.250000 4.000000 0.000000
3.500000 4.000000 0.000000
2.805000 2.745000 0.000000
2.808904 3.785023 0.000000
2.769602 3.187596 0.000000
2.818560 3.488721 0.000000
3.255000 2.805000 0.000000
3.183310 2.629173 0.000000
3.447447 3.528256 0.000000
3.255000 3.805000 0.000000
3.255000 3.195000 0.000000
3.169567 3.378219 0.000000
3.242859 3.565925 0.000000
3.413341 3.323754 0.000000
3.453287 3.717271 0.000000
3.630781 4.172236 0.000000
3.755447 4.375936 0.000000
3.512466 4.547863 0.000000
3.336997 4.345660 0.000000
3.536362 4.315974 0.000000
3.396523 4.159812 0.000000
3.186855 4.186208 0.000000
CELLS 42 168 
3 12  3  4
3 12  0  2
3 4  0 12
3 0 14  2
3 0  5 14
3 7  1 13
3 7 15  6
3 7 13 15
3 15  5  6
3 15 14  5
3 16  9  8
3 17  4  3
3 17 16  4
3 16  0  4
3 8  0 16
3 19 11 10
3 9 20  8
3 5 21  6
3 22  7  6
3 22 24 19
3 23 21 20
3 22 19  7
3 20 21  5
3 9 23 20
3 24 11 19
3 19  1  7
3 10  1 19
3 0 20  5
3 0  8 20
3 6 21 22
3 23 18 22
3 18 24 22
3 22 21 23
3 28 29 27
3 29 26 27
3 30 11 25
3 30 10 11
3 29 30 25
3 29 28 30
3 10 31  1
3 30 31 10
3 30 28 31
CELL_TYPES 42
5 5 5 5 5 5 5 5 5 5 5 5 5 5 5 5 5 5 5 5 5 5 5 5 5 5 5 5 5 5 5 5 5 5 5 5 5 5 5 5 5 5 
POINT_DATA 32
VECTORS displacement_ITER1 FLOAT
 8.369984e-04  -1.326377e-01  0 
 4.210747e-02  -1.327684e-01  0 
 8.905485e-04  -1.259953e-01  0 
 -1.213031e-02  -1.325504e-01  0 
 -5.672729e-03  -1.325877e-01  0 
 1.115995e-02  -1.327069e-01  0 
 2.148001e-02  -1.327544e-01  0 
 3.179008e-02  -1.327702e-01  0 
 8.238054e-04  -1.430486e-01  0 
 8.269735e-04  -1.534392e-01  0 
 4.213218e-02  -1.431321e-01  0 
 4.215688e-02  -1.535101e-01  0 
 -5.823194e-03  -1.275182e-01  0 
 3.171668e-02  -1.160398e-01  0 
 4.507247e-03  -1.095994e-01  0 
 1.942588e-02  -1.173285e-01  0 
 -2.413225e-03  -1.444229e-01  0 
 -7.010773e-03  -1.411062e-01  0 
 2.266617e-02  -1.512412e-01  0 
 3.406469e-02  -1.433125e-01  0 
 8.914383e-03  -1.432554e-01  0 
 1.646868e-02  -1.397462e-01  0 
 2.420780e-02  -1.427930e-01  0 
 1.423730e-02  -1.498142e-01  0 
 3.045758e-02  -1.515073e-01  0 
 5.364597e-02  -1.892981e-01  0 
 7.106874e-02  -2.896891e-01  0 
 1.060791e-01  -1.987248e-01  0 
 5.381704e-02  -1.549173e-01  0 
 5.242633e-02  -1.982084e-01  0 
 3.958902e-02  -1.593832e-01  0 
 3.963420e-02  -1.408585e-01  0 
VECTORS displacement_ITER2 FLOAT
 3.654777e-03  -7.285821e-02  0 
 4.758525e-02  -7.322123e-02  0 
 3.697003e-03  -6.527981e-02  0 
 -1.110141e-02  -7.266052e-02  0 
 -3.745277e-03  -7.273950e-02  0 
 1.472224e-02  -7.301392e-02  0 
 2.574882e-02  -7.315141e-02  0 
 3.669465e-02  -7.321570e-02  0 
 3.627918e-03  -8.409271e-02  0 
 3.630122e-03  -9.528621e-02  0 
 4.763962e-02  -8.419864e-02  0 
 4.767141e-02  -9.519569e-02  0 
 -3.929655e-03  -6.696033e-02  0 
 3.805880e-02  -5.495796e-02  0 
 8.732772e-03  -5.042514e-02  0 
 2.438136e-02  -5.712451e-02  0 
 -2.456877e-03  -8.462272e-02  0 
 -7.897626e-03  -8.174422e-02  0 
 2.701008e-02  -9.283289e-02  0 
 3.910008e-02  -8.438008e-02  0 
 1.234175e-02  -8.431503e-02  0 
 2.042065e-02  -8.058229e-02  0 
 2.866381e-02  -8.383887e-02  0 
 1.804781e-02  -9.134786e-02  0 
 3.527512e-02  -9.308070e-02  0 
 4.837853e-02  -9.131627e-02  0 
 4.218359e-02  -8.053259e-02  0 
 2.144292e-02  -9.165860e-02  0 
 3.915752e-02  -9.627829e-02  0 
 4.425295e-02  -8.870605e-02  0 
 4.837255e-02  -9.002489e-02  0 
 4.330224e-02  -8.686935e-02  0 
VECTORS displacement_ITER3 FLOAT
 -3.417525e-03  -1.979373e-02  0 
 1.270550e-03  -1.998813e-02  0 
 -3.382819e-03  -2.099009e-02  0 
 -6.374663e-04  -1.958839e-02  0 
 -2.060283e-03  -1.967079e-02  0 
 -2.199721e-03  -1.992348e-02  0 
 -1.003448e-03  -2.001621e-02  0 
 1.509516e-04  -2.003507e-02  0 
 -3.433694e-03  -2.115094e-02  0 
 -3.421306e-03  -2.246394e-02  0 
 1.335798e-03  -2.124117e-02  0 
 1.367760e-03  -2.250671e-02  0 
 -2.073226e-03  -2.073090e-02  0 
 1.015836e-04  -1.212834e-02  0 
 -4.104228e-03  -1.002921e-02  0 
 -1.599021e-03  -1.322956e-02  0 
 -1.730595e-03  -2.106119e-02  0 
 -6.248135e-04  -2.029818e-02  0 
 -8.553167e-04  -2.215014e-02  0 
 3.931664e-04  -2.122866e-02  0 
 -2.424673e-03  -2.118490e-02  0 
 -1.557096e-03  -2.080383e-02  0 
 -6.881742e-04  -2.117565e-02  0 
 -1.793494e-03  -2.198387e-02  0 
 2.250672e-07  -2.218822e-02  0 
 1.157459e-02  -3.565020e-02  0 
 2.831681e-02  -5.734560e-02  0 
 3.158053e-02  -4.300309e-02  0 
 1.315546e-02  -2.414835e-02  0 
 1.687861e-02  -3.635727e-02  0 
 4.371323e-03  -2.331764e-02  0 
 2.182969e-03  -1.774980e-02  0 
VECTORS displacement_ITER4 FLOAT
 -4.871032e-03  -3.856685e-03  0 
 4.486227e-03  -3.932776e-03  0 
 -4.849587e-03  -5.720611e-03  0 
 -7.572822e-04  -3.616886e-03  0 
 -2.857202e-03  -3.715006e-03  0 
 -2.477477e-03  -3.979856e-03  0 
 -1.155823e-04  -4.057000e-03  0 
 2.208621e-03  -4.039456e-03  0 
 -4.897779e-03  -6.388718e-03  0 
 -4.896563e-03  -8.894276e-03  0 
 4.584355e-03  -6.430520e-03  0 
 4.640882e-03  -8.916346e-03  0 
 -2.864284e-03  -5.291395e-03  0 
 4.163298e-03  -8.723925e-04  0 
 -8.574465e-04  -1.149843e-03  0 
 7.401872e-04  -1.622897e-03  0 
 -2.902490e-03  -6.461552e-03  0 
 -1.282368e-03  -5.634020e-03  0 
 1.446965e-04  -8.273054e-03  0 
 2.688659e-03  -6.422375e-03  0 
 -2.966627e-03  -6.434141e-03  0 
 -1.242692e-03  -5.643999e-03  0 
 4.919548e-04  -6.341860e-03  0 
 -1.739896e-03  -7.963836e-03  0 
 1.876683e-03  -8.335483e-03  0 
 4.658878e-03  -8.842550e-03  0 
 7.261294e-03  -1.061099e-02  0 
 5.180101e-03  -1.240174e-02  0 
 3.612168e-03  -8.413266e-03  0 
 5.009922e-03  -9.065787e-03  0 
 4.362100e-03  -7.665963e-03  0 
 3.325712e-03  -6.160913e-03  0 
VECTORS displacement_ITER5 FLOAT
 1.292706e-03  -3.657774e-03  0 
 1.952054e-03  -3.747223e-03  0 
 1.318352e-03  -5.996222e-04  0 
 -4.512328e-03  -3.434716e-03  0 
 -1.618045e-03  -3.520953e-03  0 
 1.512090e-03  -3.800493e-03  0 
 1.703087e-03  -3.892333e-03  0 
 1.847528e-03  -3.869034e-03  0 
 1.228902e-03  -4.074145e-03  0 
 1.204446e-03  -4.472488e-03  0 
 2.050416e-03  -4.080124e-03  0 
 2.106728e-03  -4.404130e-03  0 
 -1.715951e-03  -1.230367e-03  0 
 3.052432e-03  -2.221385e-03  0 
 2.092162e-03  -3.035910e-04  0 
 2.247347e-03  -2.681687e-03  0 
 -2.661370e-04  -6.940244e-03  0 
 -2.946126e-03  -7.652935e-03  0 
 1.712779e-03  -4.210483e-03  0 
 1.842011e-03  -4.029561e-03  0 
 1.505342e-03  -4.048200e-03  0 
 1.639380e-03  -4.003400e-03  0 
 1.734007e-03  -4.063787e-03  0 
 1.621511e-03  -4.211264e-03  0 
 1.790256e-03  -4.219620e-03  0 
 1.351485e-03  -3.320150e-03  0 
 3.528941e-03  -3.326269e-03  0 
 2.122106e-03  -3.576638e-03  0 
 8.647590e-04  -2.240200e-03  0 
 1.802634e-03  -2.626510e-03  0 
 1.256068e-03  -3.002816e-03  0 
 6.009638e-04  -2.439340e-03  0 
VECTORS displacement_ITER6 FLOAT
 -2.233879e-04  -2.454940e-03  0 
 1.507293e-03  -2.532221e-03  0 
 -1.925579e-04  -2.526534e-03  0 
 2.295717e-04  -2.200462e-03  0 
 2.859806e-06  -2.304463e-03  0 
 2.262763e-04  -2.599464e-03  0 
 6.815387e-04  -2.683521e-03  0 
 1.109812e-03  -2.656257e-03  0 
 -3.005512e-04  -3.123750e-03  0 
 -3.389510e-04  -3.762036e-03  0 
 1.608784e-03  -3.160512e-03  0 
 1.667378e-03  -3.777287e-03  0 
 -3.553887e-05  -2.455581e-03  0 
 1.011158e-03  -2.384419e-03  0 
 -4.301210e-04  -2.272891e-03  0 
 5.015242e-04  -2.392267e-03  0 
 -3.082266e-05  -4.111649e-03  0 
 -1.186048e-04  -4.267140e-03  0 
 7.362513e-04  -3.495995e-03  0 
 1.170721e-03  -3.112309e-03  0 
 1.665537e-04  -3.096520e-03  0 
 4.883211e-04  -2.975744e-03  0 
 7.875163e-04  -3.126673e-03  0 
 4.232919e-04  -3.437248e-03  0 
 1.020010e-03  -3.531339e-03  0 
 1.746886e-03  -4.003447e-03  0 
 2.123465e-03  -5.263012e-03  0 
 2.317042e-03  -4.211234e-03  0 
 1.741550e-03  -3.478657e-03  0 
 1.811374e-03  -3.978696e-03  0 
 1.681319e-03  -3.558212e-03  0 
 1.622322e-03  -3.080681e-03  0 
VECTORS displacement_ITER7 FLOAT
 1.738774e-04  -2.581696e-03  0 
 1.407926e-03  -2.662108e-03  0 
 2.132227e-04  -2.147872e-03  0 
 -3.473494e-04  -2.336715e-03  0 
 -9.477183e-05  -2.436098e-03  0 
 5.106099e-04  -2.718085e-03  0 
 8.546225e-04  -2.799592e-03  0 
 1.163530e-03  -2.782636e-03  0 
 1.076093e-04  -3.120728e-03  0 
 8.019140e-05  -3.621529e-03  0 
 1.521144e-03  -3.160414e-03  0 
 1.584815e-03  -3.630029e-03  0 
 -1.424639e-04  -2.209047e-03  0 
 1.233688e-03  -2.359196e-03  0 
 3.094377e-04  -2.032798e-03  0 
 8.287885e-04  -2.388454e-03  0 
 -5.774628e-05  -2.750550e-03  0 
 -1.669661e-04  -2.272960e-03  0 
 8.959571e-04  -3.412637e-03  0 
 1.197846e-03  -3.106571e-03  0 
 4.712982e-04  -3.102269e-03  0 
 7.137366e-04  -3.014912e-03  0 
 9.337602e-04  -3.129703e-03  0 
 6.663956e-04  -3.372383e-03  0 
 1.094172e-03  -3.431373e-03  0 
 2.422652e-03  -4.371885e-03  0 
 2.659257e-03  -2.017834e-03  0 
 8.207966e-04  -4.543736e-03  0 
 1.932991e-03  -4.197477e-03  0 
 2.593860e-03  -3.971319e-03  0 
 1.951997e-03  -3.499369e-03  0 
 1.440457e-03  -3.124728e-03  0 
VECTORS displacement_ITER8 FLOAT
 5.827211e-05  -2.254264e-03  0 
 1.223038e-03  -2.413966e-03  0 
 8.581122e-05  -1.875374e-03  0 
 -3.258491e-04  -2.004678e-03  0 
 -1.420991e-04  -2.094071e-03  0 
 3.902715e-04  -2.407615e-03  0 
 7.252601e-04  -2.496361e-03  0 
 1.018080e-03  -2.498175e-03  0 
 6.890533e-06  -2.793495e-03  0 
 3.215701e-06  -3.278239e-03  0 
 1.347840e-03  -2.861385e-03  0 
 1.426739e-03  -3.283965e-03  0 
 -1.894769e-04  -1.908749e-03  0 
 9.267831e-04  -2.285684e-03  0 
 2.418466e-04  -1.904123e-03  0 
 6.631024e-04  -2.156380e-03  0 
 -1.082593e-04  -2.673620e-03  0 
 -1.666269e-04  -2.422040e-03  0 
 7.623815e-04  -3.089663e-03  0 
 1.059207e-03  -2.795199e-03  0 
 3.556130e-04  -2.792867e-03  0 
 5.884532e-04  -2.701838e-03  0 
 8.058635e-04  -2.809915e-03  0 
 5.317620e-04  -3.052098e-03  0 
 9.663386e-04  -3.098747e-03  0 
 1.626077e-03  -3.514472e-03  0 
 1.938758e-03  -3.567907e-03  0 
 1.643333e-03  -3.489557e-03  0 
 1.568309e-03  -3.098536e-03  0 
 1.737819e-03  -3.341091e-03  0 
 1.519571e-03  -3.092799e-03  0 
 1.412704e-03  -2.762402e-03  0 
VECTORS displacement_ITER9 FLOAT
 1.798684e-04  -2.190760e-03  0 
 1.269771e-03  -2.340636e-03  0 
 2.053600e-04  -1.766106e-03  0 
 -3.007578e-04  -1.997148e-03  0 
 -6.382838e-05  -2.045362e-03  0 
 4.755091e-04  -2.337066e-03  0 
 7.949617e-04  -2.414927e-03  0 
 1.084505e-03  -2.415895e-03  0 
 1.362426e-04  -2.688158e-03  0 
 1.410632e-04  -3.106817e-03  0 
 1.389422e-03  -2.760014e-03  0 
 1.466868e-03  -3.136092e-03  0 
 -1.021240e-04  -1.811218e-03  0 
 9.933894e-04  -2.211068e-03  0 
 2.311592e-04  -1.843572e-03  0 
 7.098442e-04  -2.116481e-03  0 
 4.127021e-05  -2.629081e-03  0 
 -1.449360e-04  -2.384870e-03  0 
 8.312623e-04  -2.995956e-03  0 
 1.125641e-03  -2.699455e-03  0 
 4.427458e-04  -2.697639e-03  0 
 6.621509e-04  -2.613825e-03  0 
 8.738378e-04  -2.720229e-03  0 
 6.080180e-04  -2.952819e-03  0 
 1.028602e-03  -3.001262e-03  0 
 1.444406e-03  -3.133057e-03  0 
 1.859309e-03  -4.233853e-03  0 
 2.023790e-03  -3.293301e-03  0 
 1.458712e-03  -2.795205e-03  0 
 1.510237e-03  -3.173065e-03  0 
 1.401712e-03  -2.942819e-03  0 
 1.355032e-03  -2.611130e-03  0 
VECTORS displacement_ITER10 FLOAT
 1.403122e-04  -2.132108e-03  0 
 1.285211e-03  -2.300264e-03  0 
 1.706670e-04  -1.760076e-03  0 
 -2.217610e-04  -1.943066e-03  0 
 -4.029597e-05  -1.990895e-03  0 
 4.540165e-04  -2.277412e-03  0 
 7.945425e-04  -2.357861e-03  0 
 1.100476e-03  -2.366797e-03  0 
 9.770618e-05  -2.647007e-03  0 
 1.033614e-04  -3.076699e-03  0 
 1.399923e-03  -2.713297e-03  0 
 1.472284e-03  -3.069632e-03  0 
 -7.587409e-05  -1.804945e-03  0 
 1.056828e-03  -2.097324e-03  0 
 2.611844e-04  -1.805873e-03  0 
 7.223414e-04  -2.030060e-03  0 
 -2.563364e-05  -2.551651e-03  0 
 -1.904739e-04  -2.292613e-03  0 
 8.321358e-04  -2.974043e-03  0 
 1.146118e-03  -2.659100e-03  0 
 4.156967e-04  -2.658849e-03  0 
 6.520339e-04  -2.568119e-03  0 
 8.808518e-04  -2.680399e-03  0 
 5.922487e-04  -2.929746e-03  0 
 1.044066e-03  -2.969581e-03  0 
 1.528040e-03  -3.280516e-03  0 
 1.913938e-03  -3.951419e-03  0 
 1.894319e-03  -3.369457e-03  0 
 1.528566e-03  -2.867248e-03  0 
 1.617572e-03  -3.235558e-03  0 
 1.439010e-03  -2.928136e-03  0 
 1.362691e-03  -2.576964e-03  0 
VECTORS displacement_ITER11 FLOAT
 1.412795e-04  -2.134831e-03  0 
 1.281954e-03  -2.302346e-03  0 
 1.686284e-04  -1.742416e-03  0 
 -2.876040e-04  -1.945613e-03  0 
 -6.111549e-05  -1.996873e-03  0 
 4.478293e-04  -2.281076e-03  0 
 7.837985e-04  -2.359464e-03  0 
 1.092831e-03  -2.366254e-03  0 
 9.891152e-05  -2.643597e-03  0 
 1.048308e-04  -3.065808e-03  0 
 1.396599e-03  -2.717739e-03  0 
 1.468876e-03  -3.075546e-03  0 
 -9.536601e-05  -1.788343e-03  0 
 1.054589e-03  -2.087769e-03  0 
 3.008760e-04  -1.805755e-03  0 
 7.050009e-04  -2.021648e-03  0 
 -1.831164e-05  -2.567021e-03  0 
 -1.892148e-04  -2.339780e-03  0 
 8.233618e-04  -2.976734e-03  0 
 1.141289e-03  -2.663827e-03  0 
 4.115956e-04  -2.655754e-03  0 
 6.428488e-04  -2.568376e-03  0 
 8.696020e-04  -2.682463e-03  0 
 5.854249e-04  -2.923353e-03  0 
 1.038003e-03  -2.978685e-03  0 
 1.556501e-03  -3.362494e-03  0 
 1.927712e-03  -3.730687e-03  0 
 1.822100e-03  -3.393623e-03  0 
 1.528519e-03  -2.895244e-03  0 
 1.653311e-03  -3.255239e-03  0 
 1.449839e-03  -2.933086e-03  0 
 1.356322e-03  -2.586762e-03  0 
VECTORS displacement_ITER12 FLOAT
 1.397322e-04  -2.133256e-03  0 
 1.281392e-03  -2.302478e-03  0 
 1.685243e-04  -1.739243e-03  0 
 -2.862747e-04  -1.942397e-03  0 
 -6.197530e-05  -1.995159e-03  0 
 4.476414e-04  -2.279872e-03  0 
 7.842175e-04  -2.359113e-03  0 
 1.092998e-03  -2.366117e-03  0 
 9.709707e-05  -2.643708e-03  0 
 1.026860e-04  -3.067956e-03  0 
 1.395789e-03  -2.716855e-03  0 
 1.467800e-03  -3.073344e-03  0 
 -9.659854e-05  -1.788302e-03  0 
 1.050148e-03  -2.097971e-03  0 
 3.009314e-04  -1.793015e-03  0 
 7.070708e-04  -2.018293e-03  0 
 -2.903978e-05  -2.564614e-03  0 
 -1.829016e-04  -2.356749e-03  0 
 8.226246e-04  -2.977397e-03  0 
 1.141387e-03  -2.663179e-03  0 
 4.112949e-04  -2.655601e-03  0 
 6.432855e-04  -2.568038e-03  0 
 8.699735e-04  -2.682010e-03  0 
 5.858906e-04  -2.923904e-03  0 
 1.038661e-03  -2.976773e-03  0 
 1.577549e-03  -3.354829e-03  0 
 1.873445e-03  -3.775597e-03  0 
 1.825279e-03  -3.371304e-03  0 
 1.525926e-03  -2.888635e-03  0 
 1.643350e-03  -3.256737e-03  0 
 1.456522e-03  -2.934299e-03  0 
 1.367212e-03  -2.586397e-03  0 
VECTORS displacement_ITER13 FLOAT
 1.398289e-04  -2.133096e-03  0 
 1.281695e-03  -2.302137e-03  0 
 1.687524e-04  -1.738643e-03  0 
 -2.866660e-04  -1.942775e-03  0 
 -6.206375e-05  -1.995245e-03  0 
 4.476702e-04  -2.279765e-03  0 
 7.841845e-04  -2.358980e-03  0 
 1.093062e-03  -2.365863e-03  0 
 9.717447e-05  -2.643539e-03  0 
 1.027469e-04  -3.067801e-03  0 
 1.396175e-03  -2.716849e-03  0 
 1.468279e-03  -3.073784e-03  0 
 -9.659210e-05  -1.788185e-03  0 
 1.050110e-03  -2.098847e-03  0 
 3.031626e-04  -1.794665e-03  0 
 7.057928e-04  -2.018236e-03  0 
 -2.902114e-05  -2.564646e-03  0 
 -1.827874e-04  -2.356413e-03  0 
 8.225910e-04  -2.977402e-03  0 
 1.141461e-03  -2.663088e-03  0 
 4.113705e-04  -2.655412e-03  0 
 6.432790e-04  -2.567911e-03  0 
 8.699135e-04  -2.681927e-03  0 
 5.859486e-04  -2.923677e-03  0 
 1.038694e-03  -2.976795e-03  0 
 1.577070e-03  -3.350139e-03  0 
 1.878612e-03  -3.773451e-03  0 
 1.831494e-03  -3.376457e-03  0 
 1.523419e-03  -2.884166e-03  0 
 1.641001e-03  -3.255523e-03  0 
 1.456535e-03  -2.933519e-03  0 
 1.368953e-03  -2.588073e-03  0 
VECTORS displacement_ITER14 FLOAT
 1.398300e-04  -2.133148e-03  0 
 1.281640e-03  -2.302178e-03  0 
 1.687151e-04  -1.738758e-03  0 
 -2.866728e-04  -1.942802e-03  0 
 -6.206000e-05  -1.995274e-03  0 
 4.476457e-04  -2.279805e-03  0 
 7.841509e-04  -2.358999e-03  0 
 1.093027e-03  -2.365903e-03  0 
 9.718572e-05  -2.643553e-03  0 
 1.027731e-04  -3.067769e-03  0 
 1.396118e-03  -2.716868e-03  0 
 1.468217e-03  -3.073783e-03  0 
 -9.659156e-05  -1.788201e-03  0 
 1.050596e-03  -2.098740e-03  0 
 3.034036e-04  -1.794558e-03  0 
 7.050579e-04  -2.019018e-03  0 
 -2.867863e-05  -2.564958e-03  0 
 -1.830405e-04  -2.356137e-03  0 
 8.225756e-04  -2.977450e-03  0 
 1.141422e-03  -2.663109e-03  0 
 4.113439e-04  -2.655437e-03  0 
 6.432396e-04  -2.567930e-03  0 
 8.698932e-04  -2.681950e-03  0 
 5.858941e-04  -2.923677e-03  0 
 1.038665e-03  -2.976792e-03  0 
 1.577715e-03  -3.349322e-03  0 
 1.877026e-03  -3.772416e-03  0 
 1.832514e-03  -3.378595e-03  0 
 1.522990e-03  -2.882744e-03  0 
 1.640637e-03  -3.256138e-03  0 
 1.456444e-03  -2.933328e-03  0 
 1.369301e-03  -2.587899e-03  0 
CELL_DATA 42
TENSORS element_stresses FLOAT
 1.000892e-01  -1.216011e-01  0 
 -1.216011e-01  -1.798615e-01  0 
 0  0  0 

 -1.752201e-01  -4.323563e-01  0 
 -4.323563e-01  -1.989323e-01  0 
 0  0  0 

 -9.968396e-03  -1.847793e-01  0 
 -1.847793e-01  -5.544887e-01  0 
 0  0  0 

 -1.706830e-04  -6.519356e-04  0 
 -6.519356e-04  -1.838086e-04  0 
 0  0  0 

 1.281051e-04  -5.507507e-04  0 
 -5.507507e-04  -5.481955e-04  0 
 0  0  0 

 4.799787e-04  -4.591420e-04  0 
 -4.591420e-04  3.988916e-04  0 
 0  0  0 

 3.855317e-04  -4.896716e-04  0 
 -4.896716e-04  8.804431e-05  0 
 0  0  0 

 3.774003e-04  -2.120040e-04  0 
 -2.120040e-04  -2.032880e-04  0 
 0  0  0 

 2.826546e-04  -3.908317e-04  0 
 -3.908317e-04  -2.319797e-04  0 
 0  0  0 

 1.653981e-04  -5.408771e-04  0 
 -5.408771e-04  -3.719282e-04  0 
 0  0  0 

 -1.226583e-04  -8.083317e-04  0 
 -8.083317e-04  -4.833587e-04  0 
 0  0  0 

 -1.436714e-04  -9.296064e-04  0 
 -9.296064e-04  -2.529897e-04  0 
 0  0  0 

 -1.704591e-04  -9.727361e-04  0 
 -9.727361e-04  -3.545842e-04  0 
 0  0  0 

 -2.293646e-04  -1.005804e-03  0 
 -1.005804e-03  -6.203076e-04  0 
 0  0  0 

 -3.375798e-04  -1.077335e-03  0 
 -1.077335e-03  -5.566750e-04  0 
 0  0  0 

 2.139637e-01  -8.779075e-02  0 
 -8.779075e-02  -2.481053e-01  0 
 0  0  0 

 1.881226e-02  -6.643676e-02  0 
 -6.643676e-02  -1.179020e-02  0 
 0  0  0 

 4.467732e-02  -8.740568e-02  0 
 -8.740568e-02  -3.033729e-01  0 
 0  0  0 

 1.031510e-02  -6.675778e-02  0 
 -6.675778e-02  -2.452068e-02  0 
 0  0  0 

 3.441055e-02  -2.896731e-01  0 
 -2.896731e-01  1.659676e-01  0 
 0  0  0 

 -1.633476e-02  -1.688524e-01  0 
 -1.688524e-01  -2.313539e-01  0 
 0  0  0 

 -1.531438e-02  -4.386804e-02  0 
 -4.386804e-02  1.349269e-01  0 
 0  0  0 

 8.289683e-02  -1.460412e-01  0 
 -1.460412e-01  -2.077958e-01  0 
 0  0  0 

 -1.024838e-01  -1.697159e-01  0 
 -1.697159e-01  -3.763236e-02  0 
 0  0  0 

 1.325843e-01  -9.234144e-02  0 
 -9.234144e-02  -3.633581e-02  0 
 0  0  0 

 1.137665e-01  -3.584916e-01  0 
 -3.584916e-01  2.890279e-01  0 
 0  0  0 

 3.982896e-01  -2.622190e-01  0 
 -2.622190e-01  -1.987333e-01  0 
 0  0  0 

 -5.800150e-02  -2.833323e-01  0 
 -2.833323e-01  -6.040275e-01  0 
 0  0  0 

 -1.902807e-01  -3.278294e-01  0 
 -3.278294e-01  -6.567816e-02  0 
 0  0  0 

 -1.458837e-03  -8.196057e-02  0 
 -8.196057e-02  -9.910139e-02  0 
 0  0  0 

 -2.644679e-02  -2.215449e-01  0 
 -2.215449e-01  -2.933161e-02  0 
 0  0  0 

 -6.945511e-03  -2.243672e-01  0 
 -2.243672e-01  4.574739e-02  0 
 0  0  0 

 2.350609e-02  -2.092136e-01  0 
 -2.092136e-01  -2.755143e-02  0 
 0  0  0 

 5.546611e-04  -8.306622e-04  0 
 -8.306622e-04  -5.659231e-04  0 
 0  0  0 

 6.639514e-04  -9.526260e-04  0 
 -9.526260e-04  -5.505863e-04  0 
 0  0  0 

 4.677919e-04  -1.160814e-03  0 
 -1.160814e-03  -1.216032e-04  0 
 0  0  0 

 3.019119e-04  -1.011224e-03  0 
 -1.011224e-03  4.505542e-05  0 
 0  0  0 

 3.599894e-04  -7.673910e-04  0 
 -7.673910e-04  -3.927668e-04  0 
 0  0  0 

 6.290273e-04  -1.038218e-03  0 
 -1.038218e-03  -1.554187e-04  0 
 0  0  0 

 5.460914e-04  -1.267303e-03  0 
 -1.267303e-03  2.939396e-04  0 
 0  0  0 

 5.024040e-04  -1.256233e-03  0 
 -1.256233e-03  2.906227e-04  0 
 0  0  0 

 4.397613e-04  -8.993830e-04  0 
 -8.993830e-04  -1.343236e-04  0 
 0  0  0 

TENSORS element_stresses FLOAT
 1.000892e-01  -1.216011e-01  0 
 -1.216011e-01  -1.798615e-01  0 
 0  0  0 

 -1.752201e-01  -4.323563e-01  0 
 -4.323563e-01  -1.989323e-01  0 
 0  0  0 

 -9.968396e-03  -1.847793e-01  0 
 -1.847793e-01  -5.544887e-01  0 
 0  0  0 

 -1.706830e-04  -6.519356e-04  0 
 -6.519356e-04  -1.838086e-04  0 
 0  0  0 

 1.281051e-04  -5.507507e-04  0 
 -5.507507e-04  -5.481955e-04  0 
 0  0  0 

 4.799787e-04  -4.591420e-04  0 
 -4.591420e-04  3.988916e-04  0 
 0  0  0 

 3.855317e-04  -4.896716e-04  0 
 -4.896716e-04  8.804431e-05  0 
 0  0  0 

 3.774003e-04  -2.120040e-04  0 
 -2.120040e-04  -2.032880e-04  0 
 0  0  0 

 2.826546e-04  -3.908317e-04  0 
 -3.908317e-04  -2.319797e-04  0 
 0  0  0 

 1.653981e-04  -5.408771e-04  0 
 -5.408771e-04  -3.719282e-04  0 
 0  0  0 

 -1.226583e-04  -8.083317e-04  0 
 -8.083317e-04  -4.833587e-04  0 
 0  0  0 

 -1.436714e-04  -9.296064e-04  0 
 -9.296064e-04  -2.529897e-04  0 
 0  0  0 

 -1.704591e-04  -9.727361e-04  0 
 -9.727361e-04  -3.545842e-04  0 
 0  0  0 

 -2.293646e-04  -1.005804e-03  0 
 -1.005804e-03  -6.203076e-04  0 
 0  0  0 

 -3.375798e-04  -1.077335e-03  0 
 -1.077335e-03  -5.566750e-04  0 
 0  0  0 

 2.139637e-01  -8.779075e-02  0 
 -8.779075e-02  -2.481053e-01  0 
 0  0  0 

 1.881226e-02  -6.643676e-02  0 
 -6.643676e-02  -1.179020e-02  0 
 0  0  0 

 4.467732e-02  -8.740568e-02  0 
 -8.740568e-02  -3.033729e-01  0 
 0  0  0 

 1.031510e-02  -6.675778e-02  0 
 -6.675778e-02  -2.452068e-02  0 
 0  0  0 

 3.441055e-02  -2.896731e-01  0 
 -2.896731e-01  1.659676e-01  0 
 0  0  0 

 -1.633476e-02  -1.688524e-01  0 
 -1.688524e-01  -2.313539e-01  0 
 0  0  0 

 -1.531438e-02  -4.386804e-02  0 
 -4.386804e-02  1.349269e-01  0 
 0  0  0 

 8.289683e-02  -1.460412e-01  0 
 -1.460412e-01  -2.077958e-01  0 
 0  0  0 

 -1.024838e-01  -1.697159e-01  0 
 -1.697159e-01  -3.763236e-02  0 
 0  0  0 

 1.325843e-01  -9.234144e-02  0 
 -9.234144e-02  -3.633581e-02  0 
 0  0  0 

 1.137665e-01  -3.584916e-01  0 
 -3.584916e-01  2.890279e-01  0 
 0  0  0 

 3.982896e-01  -2.622190e-01  0 
 -2.622190e-01  -1.987333e-01  0 
 0  0  0 

 -5.800150e-02  -2.833323e-01  0 
 -2.833323e-01  -6.040275e-01  0 
 0  0  0 

 -1.902807e-01  -3.278294e-01  0 
 -3.278294e-01  -6.567816e-02  0 
 0  0  0 

 -1.458837e-03  -8.196057e-02  0 
 -8.196057e-02  -9.910139e-02  0 
 0  0  0 

 -2.644679e-02  -2.215449e-01  0 
 -2.215449e-01  -2.933161e-02  0 
 0  0  0 

 -6.945511e-03  -2.243672e-01  0 
 -2.243672e-01  4.574739e-02  0 
 0  0  0 

 2.350609e-02  -2.092136e-01  0 
 -2.092136e-01  -2.755143e-02  0 
 0  0  0 

 5.546611e-04  -8.306622e-04  0 
 -8.306622e-04  -5.659231e-04  0 
 0  0  0 

 6.639514e-04  -9.526260e-04  0 
 -9.526260e-04  -5.505863e-04  0 
 0  0  0 

 4.677919e-04  -1.160814e-03  0 
 -1.160814e-03  -1.216032e-04  0 
 0  0  0 

 3.019119e-04  -1.011224e-03  0 
 -1.011224e-03  4.505542e-05  0 
 0  0  0 

 3.599894e-04  -7.673910e-04  0 
 -7.673910e-04  -3.927668e-04  0 
 0  0  0 

 6.290273e-04  -1.038218e-03  0 
 -1.038218e-03  -1.554187e-04  0 
 0  0  0 

 5.460914e-04  -1.267303e-03  0 
 -1.267303e-03  2.939396e-04  0 
 0  0  0 

 5.024040e-04  -1.256233e-03  0 
 -1.256233e-03  2.906227e-04  0 
 0  0  0 

 4.397613e-04  -8.993830e-04  0 
 -8.993830e-04  -1.343236e-04  0 
 0  0  0 

