# vtk DataFile Version 3.1
this is an vtk file created by FEMAC
ASCII
DATASET UNSTRUCTURED_GRID
POINTS 33 FLOAT
1.000000 3.000000 0.000000
1.000000 4.000000 0.000000
1.000000 3.250000 0.000000
1.000000 3.500000 0.000000
1.000000 3.750000 0.000000
1.000000 4.250000 0.000000
1.500000 3.000000 0.000000
1.250000 4.000000 0.000000
1.500000 4.000000 0.000000
0.825570 3.361866 0.000000
0.825957 3.628272 0.000000
0.847252 3.832715 0.000000
0.847123 3.164854 0.000000
1.805000 3.255000 0.000000
1.361666 3.785642 0.000000
1.171305 3.165198 0.000000
1.630982 3.182178 0.000000
1.161848 3.344773 0.000000
1.223020 3.573994 0.000000
1.460006 3.535834 0.000000
1.681647 3.425464 0.000000
1.631588 3.748141 0.000000
1.155331 3.836478 0.000000
1.384851 3.278430 0.000000
1.175045 4.338476 0.000000
1.500000 4.775000 0.000000
1.341824 4.175618 0.000000
1.613228 4.205045 0.000000
1.200764 4.609959 0.000000
1.396983 4.637131 0.000000
1.561048 4.603297 0.000000
1.418444 4.423893 0.000000
1.153374 4.152819 0.000000
CELLS 42 168 
3 3 10  9
3 9 2 3
3 4 10  3
3 11  4  1
3 2 12  0
3 11 10  4
3 9 12  2
3 14  8  7
3 2 17  3
3 18  4  3
3 20 16 13
3 18 19 14
3 15 17  2
3 0 15  2
3 4 22  1
3 7 22 14
3 22  7  1
3 18 22  4
3 18 14 22
3 3 17 18
3 20 21 19
3 16 23  6
3 23 17 15
3 18 17 23
3 23 16 20
3 20 19 23
3 23 19 18
3 14 21  8
3 14 19 21
3 26  7  8
3 26 31 24
3 25 29 30
3 24 31 28
3 29 28 31
3 32  5  1
3 7 32  1
3 5 32 24
3 26 32  7
3 26 24 32
3 30 29 31
3 26  8 27
3 26 27 31
CELL_TYPES 42
5 5 5 5 5 5 5 5 5 5 5 5 5 5 5 5 5 5 5 5 5 5 5 5 5 5 5 5 5 5 5 5 5 5 5 5 5 5 5 5 5 5 
POINT_DATA 33
VECTORS displacement_ITER1 FLOAT
 -3.651298e-03  -9.402993e-03  0 
 1.838006e-02  -9.560157e-03  0 
 1.910403e-03  -9.450474e-03  0 
 7.439926e-03  -9.500548e-03  0 
 1.292820e-02  -9.533675e-03  0 
 -3.522239e-03  -1.615293e-02  0 
 -3.523683e-03  -2.056707e-02  0 
 1.839970e-02  -1.502446e-02  0 
 1.841027e-02  -2.050445e-02  0 
 2.019483e-03  4.510303e-03  0 
 8.344100e-03  4.465698e-04  0 
 1.249024e-02  -1.215524e-03  0 
 -1.488152e-03  1.992735e-03  0 
 2.059329e-03  -2.729028e-02  0 
 1.371745e-02  -1.747243e-02  0 
 3.942420e-05  -1.325334e-02  0 
 4.550177e-04  -2.342984e-02  0 
 4.023485e-03  -1.306147e-02  0 
 9.078202e-03  -1.442383e-02  0 
 8.237308e-03  -1.965084e-02  0 
 5.809001e-03  -2.454532e-02  0 
 1.289258e-02  -2.341115e-02  0 
 1.482431e-02  -1.294371e-02  0 
 2.568743e-03  -1.800245e-02  0 
 -3.744427e-03  -1.546124e-02  0 
 5.535044e-02  -8.186483e-02  0 
 1.165697e-02  -1.595539e-02  0 
 2.011892e-02  -2.703865e-02  0 
 -1.085517e-02  -9.671498e-03  0 
 1.252831e-02  -4.071943e-02  0 
 2.017892e-02  -6.960929e-02  0 
 -3.219410e-03  -2.279168e-02  0 
 9.204239e-03  -1.230052e-02  0 
VECTORS displacement_ITER2 FLOAT
 -5.966241e-04  -1.922910e-02  0 
 1.599835e-02  -1.921950e-02  0 
 3.525468e-03  -1.922188e-02  0 
 7.709673e-03  -1.923569e-02  0 
 1.187757e-02  -1.924298e-02  0 
 1.820556e-02  1.199866e-02  0 
 -6.168682e-04  -2.766320e-02  0 
 1.603293e-02  -2.340525e-02  0 
 1.604820e-02  -2.759504e-02  0 
 3.953298e-03  -1.400892e-02  0 
 8.231454e-03  -1.513997e-02  0 
 1.058667e-02  -1.654945e-02  0 
 1.911337e-03  -1.477976e-02  0 
 3.618813e-03  -3.279262e-02  0 
 1.246759e-02  -2.527645e-02  0 
 2.116683e-03  -2.207067e-02  0 
 2.406785e-03  -2.983009e-02  0 
 5.119419e-03  -2.193545e-02  0 
 8.949997e-03  -2.296555e-02  0 
 8.314818e-03  -2.693971e-02  0 
 6.473693e-03  -3.067361e-02  0 
 1.184809e-02  -2.980406e-02  0 
 1.330557e-02  -2.181682e-02  0 
 4.018072e-03  -2.568465e-02  0 
 1.588745e-02  -9.886060e-03  0 
 2.779991e-02  -2.107845e-02  0 
 1.640868e-02  -1.918333e-02  0 
 2.218175e-02  -3.240721e-02  0 
 -3.233724e-04  -5.012687e-03  0 
 1.109477e-02  -1.263326e-02  0 
 1.567659e-02  -2.040098e-02  0 
 1.438425e-02  -1.209152e-02  0 
 1.338461e-02  -1.297389e-02  0 
VECTORS displacement_ITER3 FLOAT
 -2.723680e-03  3.140501e-03  0 
 4.380951e-03  3.070011e-03  0 
 -9.966725e-04  3.134324e-03  0 
 8.701241e-04  3.078284e-03  0 
 2.685307e-03  3.034946e-03  0 
 -3.955322e-03  9.778696e-03  0 
 -2.851661e-03  -7.567846e-04  0 
 4.466685e-03  1.220238e-03  0 
 4.500708e-03  -6.032397e-04  0 
 8.319792e-04  1.516868e-03  0 
 1.731337e-03  2.573562e-03  0 
 2.580773e-03  2.247686e-03  0 
 -3.634631e-04  1.710074e-03  0 
 -9.575370e-04  -3.079305e-03  0 
 2.939751e-03  4.205033e-04  0 
 -1.604549e-03  1.910533e-03  0 
 -1.486174e-03  -1.690174e-03  0 
 -2.659690e-04  1.912918e-03  0 
 1.428614e-03  1.431153e-03  0 
 1.152793e-03  -3.322027e-04  0 
 3.348693e-04  -2.035474e-03  0 
 2.679180e-03  -1.574230e-03  0 
 3.279921e-03  1.944984e-03  0 
 -7.354591e-04  2.231704e-04  0 
 6.706454e-04  -1.953411e-03  0 
 1.189095e-02  -2.084800e-02  0 
 2.382225e-03  -1.046658e-03  0 
 6.622657e-03  -1.041929e-02  0 
 -2.965056e-03  -9.301275e-03  0 
 3.250659e-03  -1.231757e-02  0 
 6.637178e-03  -1.658761e-02  0 
 3.954002e-03  -6.377215e-03  0 
 -5.586577e-04  3.425829e-03  0 
VECTORS displacement_ITER4 FLOAT
 -3.941072e-04  1.694415e-03  0 
 2.650916e-03  1.665580e-03  0 
 4.106173e-04  1.667172e-03  0 
 1.216509e-03  1.644420e-03  0 
 2.006276e-03  1.635851e-03  0 
 -5.881984e-04  -2.715096e-04  0 
 -4.831082e-04  -7.558723e-05  0 
 2.796122e-03  8.122910e-04  0 
 2.870144e-03  -3.180453e-05  0 
 4.189564e-04  1.608566e-03  0 
 1.404960e-03  1.731385e-03  0 
 1.831404e-03  1.513261e-03  0 
 4.749884e-05  1.752993e-03  0 
 3.607046e-04  -1.191151e-03  0 
 2.123144e-03  4.804650e-04  0 
 1.422190e-04  1.117962e-03  0 
 1.473591e-04  -5.287698e-04  0 
 7.243658e-04  1.134047e-03  0 
 1.453688e-03  9.345703e-04  0 
 1.335330e-03  1.430672e-04  0 
 9.636138e-04  -6.635622e-04  0 
 2.035872e-03  -4.645141e-04  0 
 2.247366e-03  1.185072e-03  0 
 5.167614e-04  4.066024e-04  0 
 1.702511e-03  -1.361922e-03  0 
 1.059121e-03  -2.497889e-03  0 
 3.215124e-03  2.009636e-04  0 
 4.998368e-03  -6.018299e-04  0 
 7.629789e-04  -3.798422e-03  0 
 1.650175e-03  -2.692540e-03  0 
 2.577458e-03  -1.372080e-03  0 
 3.246825e-03  -1.667842e-03  0 
 1.880740e-03  9.334910e-04  0 
VECTORS displacement_ITER5 FLOAT
 6.517226e-04  7.718829e-04  0 
 7.743700e-04  7.692018e-04  0 
 7.193650e-04  7.421908e-04  0 
 8.065430e-04  7.355492e-04  0 
 8.750089e-04  7.250999e-04  0 
 3.205804e-04  -3.081130e-04  0 
 5.015842e-04  4.028685e-04  0 
 9.310049e-04  6.310884e-04  0 
 1.002716e-03  5.291376e-04  0 
 4.104595e-04  9.557321e-04  0 
 6.749937e-04  8.205614e-04  0 
 6.268985e-04  6.887686e-04  0 
 4.827519e-04  9.574506e-04  0 
 6.215265e-04  1.432002e-04  0 
 8.837232e-04  6.199235e-04  0 
 6.975830e-04  6.855670e-04  0 
 6.070455e-04  3.259138e-04  0 
 7.538195e-04  6.832850e-04  0 
 8.325857e-04  6.659919e-04  0 
 8.232932e-04  5.419898e-04  0 
 7.687848e-04  3.518211e-04  0 
 8.938047e-04  4.536003e-04  0 
 8.575947e-04  7.326442e-04  0 
 7.265292e-04  5.911120e-04  0 
 1.515975e-03  -8.570892e-04  0 
 -2.141195e-03  -4.769050e-04  0 
 2.231929e-03  2.916632e-04  0 
 4.490875e-03  -4.794231e-04  0 
 8.315743e-04  -3.502592e-03  0 
 7.196842e-04  -2.060289e-03  0 
 1.360294e-03  4.168708e-04  0 
 2.998069e-03  -1.638862e-03  0 
 1.208079e-03  4.458750e-04  0 
VECTORS displacement_ITER6 FLOAT
 3.826357e-04  -4.653686e-04  0 
 1.778752e-04  -3.625351e-04  0 
 3.556810e-04  -4.629087e-04  0 
 3.596504e-04  -4.413659e-04  0 
 3.523859e-04  -4.348835e-04  0 
 5.948860e-05  -2.740151e-04  0 
 2.424564e-04  -6.283304e-04  0 
 3.396773e-04  -4.587710e-04  0 
 4.161138e-04  -5.015194e-04  0 
 8.783887e-05  -1.032191e-04  0 
 2.417335e-04  -2.532045e-04  0 
 1.781493e-04  -3.345642e-04  0 
 1.670017e-04  -1.902947e-04  0 
 2.424482e-04  -7.768147e-04  0 
 3.466578e-04  -4.395059e-04  0 
 3.574179e-04  -4.644572e-04  0 
 2.559974e-04  -6.498462e-04  0 
 3.496977e-04  -4.543450e-04  0 
 3.574553e-04  -4.375150e-04  0 
 3.586498e-04  -4.917799e-04  0 
 3.379156e-04  -6.127082e-04  0 
 3.730119e-04  -5.284406e-04  0 
 3.045343e-04  -3.771496e-04  0 
 3.348617e-04  -4.749568e-04  0 
 4.990064e-05  -3.214994e-04  0 
 1.846937e-03  -2.026721e-03  0 
 1.869355e-04  -4.750707e-04  0 
 3.154498e-04  -4.405239e-04  0 
 5.235299e-04  -1.148985e-04  0 
 1.032127e-03  -1.147912e-03  0 
 1.163010e-03  -1.913392e-03  0 
 1.898485e-04  -7.243424e-04  0 
 1.530004e-04  -4.044198e-04  0 
VECTORS displacement_ITER7 FLOAT
 6.415506e-05  -3.605280e-04  0 
 2.426564e-04  -2.783121e-04  0 
 1.247428e-04  -3.545006e-04  0 
 2.298550e-04  -3.367599e-04  0 
 3.239869e-04  -3.365201e-04  0 
 6.163824e-05  -2.277807e-04  0 
 -1.032633e-04  -6.894264e-04  0 
 4.161506e-04  -4.682528e-04  0 
 5.018310e-04  -6.272978e-04  0 
 1.043766e-04  -1.426243e-04  0 
 2.408495e-04  -2.143593e-04  0 
 2.541622e-04  -2.418325e-04  0 
 6.790297e-05  -2.174443e-04  0 
 3.717259e-05  -9.407875e-04  0 
 3.370442e-04  -4.884386e-04  0 
 9.370637e-05  -4.203702e-04  0 
 1.405917e-05  -7.728942e-04  0 
 1.585692e-04  -4.112561e-04  0 
 2.594319e-04  -4.234805e-04  0 
 2.474364e-04  -5.681074e-04  0 
 1.825928e-04  -7.718895e-04  0 
 3.594725e-04  -6.852799e-04  0 
 3.128215e-04  -3.424253e-04  0 
 1.195738e-04  -5.198401e-04  0 
 5.041806e-04  -5.975157e-04  0 
 1.608666e-04  -9.259563e-04  0 
 5.961057e-04  -5.822420e-04  0 
 1.106988e-03  -9.186759e-04  0 
 6.141673e-04  -9.495581e-04  0 
 6.422759e-04  -1.051889e-03  0 
 7.972731e-04  -7.886295e-04  0 
 8.804217e-04  -1.023731e-03  0 
 3.103426e-04  -3.567126e-04  0 
VECTORS displacement_ITER8 FLOAT
 -1.301949e-05  -1.977531e-04  0 
 2.875420e-04  -1.965858e-04  0 
 1.126563e-04  -2.291339e-04  0 
 2.551042e-04  -2.409026e-04  0 
 3.649094e-04  -2.417694e-04  0 
 7.719709e-05  -1.734823e-04  0 
 -2.428148e-05  -6.101546e-04  0 
 4.754824e-04  -3.886817e-04  0 
 5.788111e-04  -5.724678e-04  0 
 1.503617e-04  -1.586881e-04  0 
 2.615438e-04  -1.604646e-04  0 
 2.624796e-04  -1.998652e-04  0 
 8.424166e-05  -1.589120e-04  0 
 1.058502e-04  -7.992790e-04  0 
 3.763632e-04  -4.095030e-04  0 
 6.851329e-05  -3.291102e-04  0 
 6.822477e-05  -6.807362e-04  0 
 1.716446e-04  -3.288297e-04  0 
 2.876159e-04  -3.443367e-04  0 
 2.605048e-04  -5.044083e-04  0 
 1.891287e-04  -6.995197e-04  0 
 3.899512e-04  -6.359585e-04  0 
 3.578831e-04  -2.538731e-04  0 
 1.303062e-04  -4.793537e-04  0 
 1.400341e-04  -3.382719e-04  0 
 1.109282e-03  -1.287551e-03  0 
 4.019356e-04  -4.365189e-04  0 
 6.792477e-04  -6.742591e-04  0 
 4.287945e-04  -4.061209e-04  0 
 6.947199e-04  -8.935413e-04  0 
 8.384114e-04  -1.248115e-03  0 
 4.400835e-04  -7.297392e-04  0 
 2.737719e-04  -3.077884e-04  0 
VECTORS displacement_ITER9 FLOAT
 -2.900947e-06  -1.317558e-04  0 
 2.934073e-04  -1.730069e-04  0 
 1.414694e-04  -1.757587e-04  0 
 2.836492e-04  -1.997041e-04  0 
 3.848570e-04  -2.090798e-04  0 
 7.964753e-05  -1.573396e-04  0 
 2.129190e-05  -5.222786e-04  0 
 4.832454e-04  -3.447094e-04  0 
 5.883378e-04  -5.174702e-04  0 
 1.408257e-04  -1.857261e-05  0 
 2.538761e-04  -6.220690e-05  0 
 2.722860e-04  -1.034566e-04  0 
 9.471487e-05  -4.165858e-05  0 
 1.594021e-04  -7.152202e-04  0 
 3.945819e-04  -3.591849e-04  0 
 9.733221e-05  -2.779819e-04  0 
 1.157167e-04  -6.080100e-04  0 
 2.037553e-04  -2.817287e-04  0 
 3.168556e-04  -2.998392e-04  0 
 2.901045e-04  -4.530307e-04  0 
 2.233265e-04  -6.383319e-04  0 
 4.070069e-04  -5.698938e-04  0 
 3.745445e-04  -2.148822e-04  0 
 1.644446e-04  -4.331543e-04  0 
 3.047934e-04  -3.916465e-04  0 
 5.992950e-04  -1.224677e-03  0 
 5.199560e-04  -4.230039e-04  0 
 9.349653e-04  -7.897793e-04  0 
 4.141627e-04  -7.378464e-04  0 
 6.618998e-04  -1.039977e-03  0 
 8.858631e-04  -1.037964e-03  0 
 7.042125e-04  -8.066929e-04  0 
 3.143800e-04  -2.651141e-04  0 
VECTORS displacement_ITER10 FLOAT
 1.450843e-05  -1.369420e-04  0 
 2.926961e-04  -1.670864e-04  0 
 1.518187e-04  -1.775421e-04  0 
 2.838973e-04  -1.932656e-04  0 
 3.833618e-04  -2.007285e-04  0 
 7.968812e-05  -1.540555e-04  0 
 -9.699445e-06  -4.987710e-04  0 
 4.820930e-04  -3.351273e-04  0 
 5.886364e-04  -5.064561e-04  0 
 1.464486e-04  -9.493357e-05  0 
 2.576268e-04  -9.598987e-05  0 
 2.641238e-04  -1.323215e-04  0 
 7.617512e-05  -8.419086e-05  0 
 1.490760e-04  -7.162817e-04  0 
 3.933246e-04  -3.484248e-04  0 
 1.111850e-04  -2.726876e-04  0 
 1.087830e-04  -5.999106e-04  0 
 2.067815e-04  -2.730436e-04  0 
 3.159487e-04  -2.895643e-04  0 
 2.909660e-04  -4.405791e-04  0 
 2.280249e-04  -6.217416e-04  0 
 4.047461e-04  -5.581542e-04  0 
 3.735999e-04  -2.062187e-04  0 
 1.666949e-04  -4.157383e-04  0 
 2.497765e-04  -3.828773e-04  0 
 9.055040e-04  -1.195975e-03  0 
 4.714794e-04  -4.095686e-04  0 
 7.899626e-04  -6.613168e-04  0 
 3.795432e-04  -6.629172e-04  0 
 6.561937e-04  -9.335382e-04  0 
 8.566971e-04  -1.066992e-03  0 
 5.884863e-04  -7.291871e-04  0 
 2.960422e-04  -2.706111e-04  0 
VECTORS displacement_ITER11 FLOAT
 1.650952e-05  -1.380135e-04  0 
 2.938276e-04  -1.646672e-04  0 
 1.467155e-04  -1.754020e-04  0 
 2.807439e-04  -1.908104e-04  0 
 3.823158e-04  -1.981230e-04  0 
 8.016008e-05  -1.524723e-04  0 
 -7.041664e-06  -5.024521e-04  0 
 4.838917e-04  -3.349491e-04  0 
 5.917599e-04  -5.107625e-04  0 
 1.514262e-04  -7.674924e-05  0 
 2.630484e-04  -8.691959e-05  0 
 2.776070e-04  -1.103608e-04  0 
 9.554298e-05  -7.776550e-05  0 
 1.470246e-04  -7.147493e-04  0 
 3.922705e-04  -3.487700e-04  0 
 1.062765e-04  -2.693881e-04  0 
 1.060370e-04  -5.997428e-04  0 
 2.026667e-04  -2.714103e-04  0 
 3.133969e-04  -2.888678e-04  0 
 2.881244e-04  -4.410212e-04  0 
 2.244660e-04  -6.228895e-04  0 
 4.037724e-04  -5.600744e-04  0 
 3.732427e-04  -2.047913e-04  0 
 1.628385e-04  -4.162817e-04  0 
 2.619033e-04  -3.529832e-04  0 
 8.822406e-04  -1.245990e-03  0 
 4.597035e-04  -4.039076e-04  0 
 7.463249e-04  -6.783476e-04  0 
 3.672277e-04  -6.165059e-04  0 
 6.887363e-04  -9.540833e-04  0 
 9.133061e-04  -1.118439e-03  0 
 5.939216e-04  -6.853400e-04  0 
 2.956513e-04  -2.620363e-04  0 
VECTORS displacement_ITER12 FLOAT
 1.051858e-05  -1.346420e-04  0 
 2.937360e-04  -1.645243e-04  0 
 1.455726e-04  -1.736868e-04  0 
 2.806116e-04  -1.902591e-04  0 
 3.822240e-04  -1.977235e-04  0 
 8.010755e-05  -1.523780e-04  0 
 -6.910502e-06  -5.012288e-04  0 
 4.836939e-04  -3.345547e-04  0 
 5.913445e-04  -5.099432e-04  0 
 1.645771e-04  -7.497114e-05  0 
 2.626485e-04  -8.423497e-05  0 
 2.721920e-04  -1.173273e-04  0 
 7.669434e-05  -7.728482e-05  0 
 1.469396e-04  -7.146466e-04  0 
 3.922445e-04  -3.484507e-04  0 
 1.042250e-04  -2.697146e-04  0 
 1.059148e-04  -5.989591e-04  0 
 2.022671e-04  -2.711794e-04  0 
 3.132462e-04  -2.885463e-04  0 
 2.878645e-04  -4.408292e-04  0 
 2.242755e-04  -6.224441e-04  0 
 4.036433e-04  -5.600436e-04  0 
 3.732143e-04  -2.045036e-04  0 
 1.624119e-04  -4.161474e-04  0 
 2.623473e-04  -3.565670e-04  0 
 9.118214e-04  -1.250337e-03  0 
 4.568187e-04  -4.059548e-04  0 
 7.346479e-04  -6.684160e-04  0 
 3.600042e-04  -6.049769e-04  0 
 6.824649e-04  -9.405432e-04  0 
 9.065725e-04  -1.109526e-03  0 
 5.844527e-04  -6.825124e-04  0 
 2.941203e-04  -2.633826e-04  0 
VECTORS displacement_ITER13 FLOAT
 1.025532e-05  -1.341920e-04  0 
 2.938666e-04  -1.642863e-04  0 
 1.456928e-04  -1.734920e-04  0 
 2.806502e-04  -1.899709e-04  0 
 3.823128e-04  -1.974375e-04  0 
 8.016367e-05  -1.522179e-04  0 
 -7.246331e-06  -5.011067e-04  0 
 4.838796e-04  -3.343741e-04  0 
 5.915756e-04  -5.099124e-04  0 
 1.633826e-04  -7.508601e-05  0 
 2.636317e-04  -8.416042e-05  0 
 2.726048e-04  -1.182212e-04  0 
 7.617247e-05  -7.919925e-05  0 
 1.467404e-04  -7.151141e-04  0 
 3.923691e-04  -3.482737e-04  0 
 1.043667e-04  -2.695754e-04  0 
 1.056677e-04  -5.989545e-04  0 
 2.022890e-04  -2.709209e-04  0 
 3.132996e-04  -2.882793e-04  0 
 2.879429e-04  -4.406231e-04  0 
 2.243130e-04  -6.223594e-04  0 
 4.038093e-04  -5.599091e-04  0 
 3.733356e-04  -2.042616e-04  0 
 1.623523e-04  -4.158330e-04  0 
 2.639608e-04  -3.574029e-04  0 
 9.043839e-04  -1.249357e-03  0 
 4.577608e-04  -4.057914e-04  0 
 7.359221e-04  -6.718996e-04  0 
 3.610708e-04  -6.091043e-04  0 
 6.813383e-04  -9.415680e-04  0 
 9.065467e-04  -1.106247e-03  0 
 5.881280e-04  -6.816267e-04  0 
 2.944961e-04  -2.631524e-04  0 
VECTORS displacement_ITER14 FLOAT
 1.020190e-05  -1.342368e-04  0 
 2.938527e-04  -1.642986e-04  0 
 1.456794e-04  -1.735080e-04  0 
 2.806379e-04  -1.899860e-04  0 
 3.822990e-04  -1.974531e-04  0 
 8.015840e-05  -1.522283e-04  0 
 -7.261612e-06  -5.011276e-04  0 
 4.838589e-04  -3.343825e-04  0 
 5.915484e-04  -5.099079e-04  0 
 1.631666e-04  -7.538067e-05  0 
 2.633702e-04  -8.466791e-05  0 
 2.727854e-04  -1.183005e-04  0 
 7.609165e-05  -8.030746e-05  0 
 1.467484e-04  -7.150695e-04  0 
 3.923545e-04  -3.482829e-04  0 
 1.043474e-04  -2.695905e-04  0 
 1.056643e-04  -5.989660e-04  0 
 2.022756e-04  -2.709369e-04  0 
 3.132874e-04  -2.882934e-04  0 
 2.879270e-04  -4.406366e-04  0 
 2.242878e-04  -6.223822e-04  0 
 4.037929e-04  -5.599118e-04  0 
 3.733207e-04  -2.042755e-04  0 
 1.623372e-04  -4.158576e-04  0 
 2.643080e-04  -3.570119e-04  0 
 9.046897e-04  -1.249356e-03  0 
 4.579080e-04  -4.056548e-04  0 
 7.361208e-04  -6.725945e-04  0 
 3.606653e-04  -6.085840e-04  0 
 6.814742e-04  -9.411788e-04  0 
 9.070540e-04  -1.105757e-03  0 
 5.878329e-04  -6.805060e-04  0 
 2.945927e-04  -2.629746e-04  0 
CELL_DATA 42
TENSORS element_stresses FLOAT
 4.020240e-04  -1.958162e-04  0 
 -1.958162e-04  8.666253e-05  0 
 0  0  0 

 2.485483e-04  -4.999644e-05  0 
 -4.999644e-05  8.652687e-06  0 
 0  0  0 

 4.285242e-04  -1.696123e-04  0 
 -1.696123e-04  9.868888e-05  0 
 0  0  0 

 6.210569e-04  -6.155082e-04  0 
 -6.155082e-04  3.189348e-04  0 
 0  0  0 

 1.167481e-04  1.519670e-05  0 
 1.519670e-05  -1.220605e-04  0 
 0  0  0 

 7.372438e-04  -4.630349e-04  0 
 -4.630349e-04  1.165403e-04  0 
 0  0  0 

 2.035504e-04  -9.555853e-05  0 
 -9.555853e-05  2.177117e-05  0 
 0  0  0 

 3.741626e-01  -3.910036e-02  0 
 -3.910036e-02  -1.886504e-01  0 
 0  0  0 

 1.517047e-02  -1.811505e-02  0 
 -1.811505e-02  -6.136066e-02  0 
 0  0  0 

 2.768336e-03  -1.865143e-02  0 
 -1.865143e-02  -2.903788e-02  0 
 0  0  0 

 5.399982e-02  -1.588363e-01  0 
 -1.588363e-01  6.297134e-02  0 
 0  0  0 

 -5.523769e-03  -1.703376e-01  0 
 -1.703376e-01  1.228743e-01  0 
 0  0  0 

 1.982572e-02  -2.525110e-02  0 
 -2.525110e-02  -3.208015e-02  0 
 0  0  0 

 -2.213037e-02  -7.441470e-02  0 
 -7.441470e-02  -1.637241e-01  0 
 0  0  0 

 1.966455e-01  -3.627226e-01  0 
 -3.627226e-01  1.916114e-01  0 
 0  0  0 

 1.359058e-01  -1.826975e-01  0 
 -1.826975e-01  -3.019404e-01  0 
 0  0  0 

 7.027364e-01  -3.418140e-01  0 
 -3.418140e-01  -1.909614e-01  0 
 0  0  0 

 -8.889106e-02  -5.595325e-03  0 
 -5.595325e-03  2.433310e-01  0 
 0  0  0 

 2.236944e-01  -3.011066e-01  0 
 -3.011066e-01  2.167207e-01  0 
 0  0  0 

 -2.061269e-03  2.494037e-02  0 
 2.494037e-02  4.537111e-02  0 
 0  0  0 

 1.168031e-02  -1.765931e-01  0 
 -1.765931e-01  7.545201e-02  0 
 0  0  0 

 9.862833e-03  -1.012015e-01  0 
 -1.012015e-01  1.267409e-03  0 
 0  0  0 

 -3.279430e-02  -9.079703e-02  0 
 -9.079703e-02  -5.222449e-02  0 
 0  0  0 

 -5.806665e-03  -9.997815e-02  0 
 -9.997815e-02  8.877986e-02  0 
 0  0  0 

 -2.232956e-02  -1.750132e-01  0 
 -1.750132e-01  4.756197e-02  0 
 0  0  0 

 -1.169637e-03  -1.989190e-01  0 
 -1.989190e-01  1.246305e-01  0 
 0  0  0 

 -1.069788e-03  -1.022558e-01  0 
 -1.022558e-01  8.699952e-02  0 
 0  0  0 

 9.789695e-02  9.262465e-03  0 
 9.262465e-03  -1.982474e-01  0 
 0  0  0 

 1.380686e-01  -2.424597e-01  0 
 -2.424597e-01  1.060058e-01  0 
 0  0  0 

 4.605900e-04  -8.269973e-04  0 
 -8.269973e-04  9.944117e-05  0 
 0  0  0 

 1.154096e-03  -7.138203e-04  0 
 -7.138203e-04  -4.352881e-04  0 
 0  0  0 

 1.202697e-03  -5.814968e-04  0 
 -5.814968e-04  -9.265625e-04  0 
 0  0  0 

 1.096239e-03  -6.165451e-04  0 
 -6.165451e-04  -4.994177e-04  0 
 0  0  0 

 1.253115e-03  -6.995139e-04  0 
 -6.995139e-04  -9.979637e-04  0 
 0  0  0 

 9.571359e-04  -1.189425e-03  0 
 -1.189425e-03  3.354220e-04  0 
 0  0  0 

 8.474230e-04  -1.106368e-03  0 
 -1.106368e-03  2.913273e-04  0 
 0  0  0 

 1.195216e-03  -9.807863e-04  0 
 -9.807863e-04  -3.458099e-05  0 
 0  0  0 

 1.034110e-03  -1.074852e-03  0 
 -1.074852e-03  2.995937e-04  0 
 0  0  0 

 8.481538e-04  -7.491389e-04  0 
 -7.491389e-04  -1.696748e-04  0 
 0  0  0 

 1.199040e-03  -5.323610e-04  0 
 -5.323610e-04  -9.917493e-04  0 
 0  0  0 

 1.021082e-03  -6.206287e-04  0 
 -6.206287e-04  4.009156e-05  0 
 0  0  0 

 8.268940e-04  -5.225333e-04  0 
 -5.225333e-04  -5.832568e-04  0 
 0  0  0 

TENSORS element_stresses FLOAT
 4.020240e-04  -1.958162e-04  0 
 -1.958162e-04  8.666253e-05  0 
 0  0  0 

 2.485483e-04  -4.999644e-05  0 
 -4.999644e-05  8.652687e-06  0 
 0  0  0 

 4.285242e-04  -1.696123e-04  0 
 -1.696123e-04  9.868888e-05  0 
 0  0  0 

 6.210569e-04  -6.155082e-04  0 
 -6.155082e-04  3.189348e-04  0 
 0  0  0 

 1.167481e-04  1.519670e-05  0 
 1.519670e-05  -1.220605e-04  0 
 0  0  0 

 7.372438e-04  -4.630349e-04  0 
 -4.630349e-04  1.165403e-04  0 
 0  0  0 

 2.035504e-04  -9.555853e-05  0 
 -9.555853e-05  2.177117e-05  0 
 0  0  0 

 3.741626e-01  -3.910036e-02  0 
 -3.910036e-02  -1.886504e-01  0 
 0  0  0 

 1.517047e-02  -1.811505e-02  0 
 -1.811505e-02  -6.136066e-02  0 
 0  0  0 

 2.768336e-03  -1.865143e-02  0 
 -1.865143e-02  -2.903788e-02  0 
 0  0  0 

 5.399982e-02  -1.588363e-01  0 
 -1.588363e-01  6.297134e-02  0 
 0  0  0 

 -5.523769e-03  -1.703376e-01  0 
 -1.703376e-01  1.228743e-01  0 
 0  0  0 

 1.982572e-02  -2.525110e-02  0 
 -2.525110e-02  -3.208015e-02  0 
 0  0  0 

 -2.213037e-02  -7.441470e-02  0 
 -7.441470e-02  -1.637241e-01  0 
 0  0  0 

 1.966455e-01  -3.627226e-01  0 
 -3.627226e-01  1.916114e-01  0 
 0  0  0 

 1.359058e-01  -1.826975e-01  0 
 -1.826975e-01  -3.019404e-01  0 
 0  0  0 

 7.027364e-01  -3.418140e-01  0 
 -3.418140e-01  -1.909614e-01  0 
 0  0  0 

 -8.889106e-02  -5.595325e-03  0 
 -5.595325e-03  2.433310e-01  0 
 0  0  0 

 2.236944e-01  -3.011066e-01  0 
 -3.011066e-01  2.167207e-01  0 
 0  0  0 

 -2.061269e-03  2.494037e-02  0 
 2.494037e-02  4.537111e-02  0 
 0  0  0 

 1.168031e-02  -1.765931e-01  0 
 -1.765931e-01  7.545201e-02  0 
 0  0  0 

 9.862833e-03  -1.012015e-01  0 
 -1.012015e-01  1.267409e-03  0 
 0  0  0 

 -3.279430e-02  -9.079703e-02  0 
 -9.079703e-02  -5.222449e-02  0 
 0  0  0 

 -5.806665e-03  -9.997815e-02  0 
 -9.997815e-02  8.877986e-02  0 
 0  0  0 

 -2.232956e-02  -1.750132e-01  0 
 -1.750132e-01  4.756197e-02  0 
 0  0  0 

 -1.169637e-03  -1.989190e-01  0 
 -1.989190e-01  1.246305e-01  0 
 0  0  0 

 -1.069788e-03  -1.022558e-01  0 
 -1.022558e-01  8.699952e-02  0 
 0  0  0 

 9.789695e-02  9.262465e-03  0 
 9.262465e-03  -1.982474e-01  0 
 0  0  0 

 1.380686e-01  -2.424597e-01  0 
 -2.424597e-01  1.060058e-01  0 
 0  0  0 

 4.605900e-04  -8.269973e-04  0 
 -8.269973e-04  9.944117e-05  0 
 0  0  0 

 1.154096e-03  -7.138203e-04  0 
 -7.138203e-04  -4.352881e-04  0 
 0  0  0 

 1.202697e-03  -5.814968e-04  0 
 -5.814968e-04  -9.265625e-04  0 
 0  0  0 

 1.096239e-03  -6.165451e-04  0 
 -6.165451e-04  -4.994177e-04  0 
 0  0  0 

 1.253115e-03  -6.995139e-04  0 
 -6.995139e-04  -9.979637e-04  0 
 0  0  0 

 9.571359e-04  -1.189425e-03  0 
 -1.189425e-03  3.354220e-04  0 
 0  0  0 

 8.474230e-04  -1.106368e-03  0 
 -1.106368e-03  2.913273e-04  0 
 0  0  0 

 1.195216e-03  -9.807863e-04  0 
 -9.807863e-04  -3.458099e-05  0 
 0  0  0 

 1.034110e-03  -1.074852e-03  0 
 -1.074852e-03  2.995937e-04  0 
 0  0  0 

 8.481538e-04  -7.491389e-04  0 
 -7.491389e-04  -1.696748e-04  0 
 0  0  0 

 1.199040e-03  -5.323610e-04  0 
 -5.323610e-04  -9.917493e-04  0 
 0  0  0 

 1.021082e-03  -6.206287e-04  0 
 -6.206287e-04  4.009156e-05  0 
 0  0  0 

 8.268940e-04  -5.225333e-04  0 
 -5.225333e-04  -5.832568e-04  0 
 0  0  0 

