# vtk DataFile Version 3.1
this is an vtk file created by FEMAC
ASCII
DATASET UNSTRUCTURED_GRID
POINTS 32 FLOAT
0.000000 4.000000 0.000000
1.000000 4.000000 0.000000
0.250000 4.000000 0.000000
0.500000 4.000000 0.000000
0.750000 4.000000 0.000000
0.000000 3.500000 0.000000
0.000000 3.750000 0.000000
0.000000 4.250000 0.000000
0.000000 4.500000 0.000000
1.000000 4.250000 0.000000
1.000000 4.500000 0.000000
1.000000 4.750000 0.000000
0.272476 3.537430 0.000000
0.660302 3.785301 0.000000
0.825570 3.361866 0.000000
0.825957 3.628272 0.000000
0.594871 3.497465 0.000000
0.400442 3.782533 0.000000
0.847252 3.832715 0.000000
0.153820 3.761660 0.000000
0.272476 4.537430 0.000000
0.660045 4.212404 0.000000
0.162952 4.171693 0.000000
0.825570 4.361866 0.000000
0.825957 4.628272 0.000000
0.594871 4.497465 0.000000
0.372389 4.253823 0.000000
0.165804 4.339408 0.000000
0.847252 4.832715 0.000000
0.847123 4.164854 0.000000
1.175045 4.338476 0.000000
1.200764 4.609959 0.000000
CELLS 43 172 
3 3 13  4
3 17 13  3
3 16 17 12
3 16 13 17
3 2 17  3
3 16 15 13
3 14 15 16
3 4 18  1
3 18  4 13
3 13 15 18
3 19  2  0
3 6 19  0
3 5 19  6
3 17 19 12
3 19 17  2
3 5 12 19
3 21  3  4
3 2 22  0
3 22  7  0
3 10 24 23
3 25 21 23
3 21 26  3
3 26 25 20
3 21 25 26
3 23  9 10
3 11 24 10
3 26  2  3
3 22  2 26
3 23 24 25
3 22 27  7
3 29  4  1
3 9 29  1
3 4 29 21
3 27 26 20
3 22 26 27
3 28 24 11
3 23 29  9
3 23 21 29
3 27  8  7
3 8 27 20
3 30 10  9
3 31 11 10
3 30 31 10
CELL_TYPES 43
5 5 5 5 5 5 5 5 5 5 5 5 5 5 5 5 5 5 5 5 5 5 5 5 5 5 5 5 5 5 5 5 5 5 5 5 5 5 5 5 5 5 5 
POINT_DATA 32
VECTORS displacement_ITER1 FLOAT
 0  0  0 
 -3.741601e-04  -1.373551e-03  0 
 -1.874788e-04  -1.839541e-04  0 
 -3.069039e-04  -4.981255e-04  0 
 -3.650236e-04  -9.370561e-04  0 
 0  0  0 
 0  0  0 
 0  0  0 
 0  0  0 
 4.944539e-05  -1.407185e-03  0 
 5.950411e-04  -1.570656e-03  0 
 1.371963e-03  -1.823924e-03  0 
 1.100400e-03  -1.300026e-04  0 
 4.933228e-03  -5.393472e-03  0 
 -4.371072e-03  -2.506964e-02  0 
 5.278235e-03  -1.368043e-02  0 
 2.735257e-03  -5.192112e-03  0 
 2.809892e-03  -1.926096e-03  0 
 4.119690e-03  -5.893202e-03  0 
 8.639160e-04  -5.350981e-04  0 
 2.853498e-04  -2.778354e-04  0 
 -2.531771e-05  -7.424805e-04  0 
 -9.806702e-06  -2.517659e-05  0 
 2.344464e-04  -1.074641e-03  0 
 8.850440e-04  -1.167010e-03  0 
 4.546095e-04  -6.176447e-04  0 
 3.951884e-05  -2.243970e-04  0 
 3.561945e-05  -3.609141e-05  0 
 1.716379e-03  -1.224851e-03  0 
 -1.053235e-04  -1.103838e-03  0 
 2.848085e-03  -1.378223e-02  0 
 1.694746e-02  -3.153729e-02  0 
VECTORS displacement_ITER2 FLOAT
 0  0  0 
 -2.536758e-04  -1.232948e-03  0 
 -1.660898e-04  -1.699012e-04  0 
 -2.601370e-04  -4.538065e-04  0 
 -2.889262e-04  -8.450293e-04  0 
 0  0  0 
 0  0  0 
 0  0  0 
 0  0  0 
 7.258079e-05  -1.273700e-03  0 
 5.332607e-04  -1.400601e-03  0 
 1.150838e-03  -1.625594e-03  0 
 2.569447e-03  8.990611e-04  0 
 4.189142e-03  -4.103943e-04  0 
 1.211034e-02  3.865494e-03  0 
 8.579130e-03  2.015853e-03  0 
 7.418870e-03  1.897590e-03  0 
 2.044638e-03  -9.824805e-04  0 
 5.469070e-03  3.572897e-04  0 
 6.618144e-04  -6.735057e-04  0 
 2.653349e-04  -2.676678e-04  0 
 1.185792e-06  -6.909179e-04  0 
 -7.557808e-06  -2.815893e-05  0 
 2.310123e-04  -9.878229e-04  0 
 7.669492e-04  -1.069773e-03  0 
 4.145245e-04  -5.930891e-04  0 
 4.254568e-05  -2.224911e-04  0 
 3.514511e-05  -4.024729e-05  0 
 1.433512e-03  -1.126126e-03  0 
 -5.650942e-05  -1.014512e-03  0 
 4.126943e-03  -6.344995e-03  0 
 1.454768e-02  -1.731071e-02  0 
VECTORS displacement_ITER3 FLOAT
 0  0  0 
 1.053913e-04  -3.579740e-04  0 
 -3.738970e-05  -6.482863e-05  0 
 -2.461176e-05  -1.421276e-04  0 
 1.928841e-05  -2.322298e-04  0 
 0  0  0 
 0  0  0 
 0  0  0 
 0  0  0 
 7.638488e-05  -3.124238e-04  0 
 7.313284e-05  -2.673870e-04  0 
 -3.254725e-05  -2.202330e-04  0 
 2.707471e-04  4.664216e-04  0 
 1.443662e-04  1.491896e-03  0 
 8.508425e-04  6.806305e-03  0 
 1.124435e-03  4.459532e-03  0 
 7.412117e-04  3.018843e-03  0 
 -2.809842e-04  5.521220e-04  0 
 1.099313e-03  1.771548e-03  0 
 -1.176138e-04  4.590172e-05  0 
 7.922394e-05  -1.111544e-04  0 
 5.585684e-05  -2.379241e-04  0 
 -4.623855e-07  -2.757278e-05  0 
 8.794053e-05  -2.922432e-04  0 
 4.813119e-05  -2.918865e-04  0 
 9.184695e-05  -2.493700e-04  0 
 2.298735e-05  -1.216583e-04  0 
 1.514482e-05  -3.488625e-05  0 
 -1.225274e-04  -3.494692e-04  0 
 7.883182e-05  -3.073473e-04  0 
 1.415967e-03  -1.216230e-04  0 
 3.786923e-03  -3.080079e-03  0 
VECTORS displacement_ITER4 FLOAT
 0  0  0 
 3.372498e-04  4.328998e-05  0 
 2.803046e-05  -1.166300e-05  0 
 9.353984e-05  -1.288733e-05  0 
 1.870248e-04  2.290612e-05  0 
 0  0  0 
 0  0  0 
 0  0  0 
 0  0  0 
 1.043830e-04  8.134318e-05  0 
 -5.831058e-05  1.378221e-04  0 
 -3.334369e-04  2.243789e-04  0 
 8.224236e-04  3.756529e-04  0 
 7.158377e-04  8.073865e-04  0 
 6.048079e-03  5.772470e-03  0 
 2.209054e-03  2.967733e-03  0 
 2.413263e-03  1.327722e-03  0 
 3.657914e-04  -4.114321e-05  0 
 1.226397e-03  1.161917e-03  0 
 1.309965e-04  -1.494749e-04  0 
 1.608215e-05  -5.731837e-05  0 
 1.011648e-04  -5.987383e-05  0 
 9.167331e-06  -2.470267e-05  0 
 5.260460e-05  -1.715581e-05  0 
 -1.576984e-04  7.789203e-06  0 
 -5.921402e-06  -1.039598e-04  0 
 3.337916e-05  -7.670945e-05  0 
 1.310728e-05  -3.388481e-05  0 
 -4.959107e-04  -4.074477e-05  0 
 1.659834e-04  -2.445055e-05  0 
 5.533185e-04  6.567873e-04  0 
 8.456802e-04  1.771354e-04  0 
VECTORS displacement_ITER5 FLOAT
 0  0  0 
 2.101339e-04  -4.935043e-04  0 
 -4.428160e-05  -8.008270e-05  0 
 -2.432194e-05  -2.036664e-04  0 
 5.087514e-05  -3.378958e-04  0 
 0  0  0 
 0  0  0 
 0  0  0 
 0  0  0 
 1.212005e-04  -4.568066e-04  0 
 1.706003e-04  -4.696150e-04  0 
 2.180011e-04  -4.938602e-04  0 
 3.734063e-04  2.055153e-05  0 
 4.214616e-04  -7.466409e-05  0 
 2.922644e-03  1.594627e-03  0 
 1.136321e-03  5.995603e-04  0 
 1.190403e-03  1.004026e-04  0 
 2.270852e-04  -2.672963e-04  0 
 6.268875e-04  -1.123463e-06  0 
 8.087588e-05  -1.547445e-04  0 
 1.282048e-04  -1.658190e-04  0 
 9.470315e-05  -3.494712e-04  0 
 5.778872e-06  -3.317630e-05  0 
 1.421102e-04  -4.315317e-04  0 
 1.931230e-04  -4.355533e-04  0 
 1.729735e-04  -3.418609e-04  0 
 5.093133e-05  -1.628176e-04  0 
 2.763972e-05  -4.757620e-05  0 
 2.625342e-04  -4.534807e-04  0 
 1.313065e-04  -4.556841e-04  0 
 3.757482e-04  -5.786721e-04  0 
 7.325850e-04  -1.047245e-03  0 
VECTORS displacement_ITER6 FLOAT
 0  0  0 
 2.098478e-04  -3.308866e-04  0 
 -2.040413e-05  -3.551386e-05  0 
 -1.235949e-05  -1.120162e-04  0 
 5.011433e-05  -1.987357e-04  0 
 0  0  0 
 0  0  0 
 0  0  0 
 0  0  0 
 6.337983e-05  -2.711610e-04  0 
 1.053601e-04  -3.323577e-04  0 
 2.406024e-04  -4.589060e-04  0 
 2.072988e-04  -6.485157e-06  0 
 3.161887e-04  -1.857727e-04  0 
 1.427339e-03  1.118087e-04  0 
 6.557029e-04  -9.964205e-05  0 
 6.495746e-04  -1.451562e-04  0 
 1.843115e-04  -1.917234e-04  0 
 3.861862e-04  -1.784415e-04  0 
 6.456146e-05  -8.918886e-05  0 
 4.236959e-05  -3.489848e-05  0 
 5.900956e-05  -2.120689e-04  0 
 5.373989e-06  -1.174536e-05  0 
 6.448950e-05  -2.626008e-04  0 
 1.388718e-04  -2.783742e-04  0 
 8.174548e-05  -1.642926e-04  0 
 3.139740e-05  -7.430015e-05  0 
 1.897839e-05  -1.692444e-05  0 
 3.084307e-04  -3.665533e-04  0 
 9.948867e-05  -2.996174e-04  0 
 1.904154e-04  -4.977261e-04  0 
 3.040602e-04  -6.601036e-04  0 
VECTORS displacement_ITER7 FLOAT
 0  0  0 
 2.417210e-04  -2.747100e-04  0 
 -1.666810e-05  -3.788663e-05  0 
 -9.945031e-07  -1.086115e-04  0 
 7.041441e-05  -1.753772e-04  0 
 0  0  0 
 0  0  0 
 0  0  0 
 0  0  0 
 6.285427e-05  -2.283502e-04  0 
 7.883951e-05  -2.963675e-04  0 
 2.215988e-04  -4.550098e-04  0 
 3.287287e-05  -7.141961e-05  0 
 1.108339e-04  -1.629059e-04  0 
 -5.946843e-05  -4.764604e-04  0 
 1.314044e-04  -2.605138e-04  0 
 8.972099e-05  -1.735492e-04  0 
 5.472206e-05  -1.022682e-04  0 
 1.609701e-04  -2.192819e-04  0 
 2.120538e-05  -4.593773e-05  0 
 3.630529e-05  -3.949303e-05  0 
 5.928084e-05  -2.021055e-04  0 
 4.968118e-06  -1.608907e-05  0 
 5.172289e-05  -2.395223e-04  0 
 1.036179e-04  -2.513046e-04  0 
 6.139560e-05  -1.581895e-04  0 
 2.960058e-05  -8.120319e-05  0 
 1.759539e-05  -2.155813e-05  0 
 2.969412e-04  -3.216401e-04  0 
 1.058800e-04  -2.715218e-04  0 
 1.407431e-04  -4.723011e-04  0 
 2.872892e-04  -7.053481e-04  0 
VECTORS displacement_ITER8 FLOAT
 0  0  0 
 2.837576e-04  -2.003699e-04  0 
 -4.063044e-06  -2.479935e-05  0 
 2.055933e-05  -8.496901e-05  0 
 1.001026e-04  -1.336183e-04  0 
 0  0  0 
 0  0  0 
 0  0  0 
 0  0  0 
 7.648493e-05  -1.741013e-04  0 
 8.414951e-05  -2.527954e-04  0 
 1.990268e-04  -3.925566e-04  0 
 4.588028e-05  -6.053771e-06  0 
 1.526583e-04  -6.925585e-05  0 
 -5.130067e-05  -1.276479e-04  0 
 2.005842e-04  -6.958355e-05  0 
 9.497972e-05  9.194831e-06  0 
 5.937889e-05  -3.517342e-05  0 
 2.440637e-04  -1.110710e-04  0 
 1.845071e-05  -2.233013e-05  0 
 3.422692e-05  -3.574377e-05  0 
 7.100099e-05  -1.718064e-04  0 
 8.040442e-06  -1.329039e-05  0 
 5.743112e-05  -2.002729e-04  0 
 1.023778e-04  -2.213703e-04  0 
 5.941803e-05  -1.320010e-04  0 
 3.601730e-05  -7.045205e-05  0 
 1.890509e-05  -2.012234e-05  0 
 2.516666e-04  -2.714901e-04  0 
 1.232164e-04  -2.266676e-04  0 
 3.175147e-04  -3.902602e-04  0 
 3.364262e-04  -7.095299e-04  0 
VECTORS displacement_ITER9 FLOAT
 0  0  0 
 2.929036e-04  -1.740273e-04  0 
 -9.992704e-07  -2.170324e-05  0 
 2.557636e-05  -7.828454e-05  0 
 1.072346e-04  -1.209182e-04  0 
 0  0  0 
 0  0  0 
 0  0  0 
 0  0  0 
 7.946937e-05  -1.575938e-04  0 
 8.331253e-05  -2.393922e-04  0 
 1.916138e-04  -3.774675e-04  0 
 8.613975e-05  -5.983940e-06  0 
 2.099722e-04  -9.733546e-05  0 
 3.408712e-04  -4.600417e-05  0 
 3.226523e-04  -9.939136e-05  0 
 2.174878e-04  -3.657323e-05  0 
 1.010220e-04  -6.400017e-05  0 
 2.930368e-04  -1.312549e-04  0 
 3.417924e-05  -3.435097e-05  0 
 3.271459e-05  -3.277220e-05  0 
 7.253629e-05  -1.627634e-04  0 
 8.504185e-06  -1.259692e-05  0 
 5.778826e-05  -1.889164e-04  0 
 9.898104e-05  -2.124196e-04  0 
 5.787023e-05  -1.259261e-04  0 
 3.637259e-05  -6.706606e-05  0 
 1.890534e-05  -1.921232e-05  0 
 2.456011e-04  -2.584659e-04  0 
 1.259691e-04  -2.118330e-04  0 
 2.760124e-04  -4.112947e-04  0 
 3.397740e-04  -6.882883e-04  0 
VECTORS displacement_ITER10 FLOAT
 0  0  0 
 2.924226e-04  -1.671781e-04  0 
 -5.316636e-07  -2.083468e-05  0 
 2.601656e-05  -7.655633e-05  0 
 1.076165e-04  -1.178892e-04  0 
 0  0  0 
 0  0  0 
 0  0  0 
 0  0  0 
 7.974079e-05  -1.540557e-04  0 
 8.253284e-05  -2.360329e-04  0 
 1.904100e-04  -3.754703e-04  0 
 6.009980e-05  -1.000556e-05  0 
 1.995947e-04  -9.138912e-05  0 
 6.471330e-05  -2.008493e-04  0 
 2.783975e-04  -1.194578e-04  0 
 1.461540e-04  -1.143384e-05  0 
 8.640164e-05  -4.725486e-05  0 
 2.846299e-04  -1.227051e-04  0 
 2.851462e-05  -2.587720e-05  0 
 3.268299e-05  -3.155581e-05  0 
 7.213722e-05  -1.602596e-04  0 
 8.522581e-06  -1.217485e-05  0 
 5.770230e-05  -1.863359e-04  0 
 9.743632e-05  -2.100507e-04  0 
 5.805045e-05  -1.242640e-04  0 
 3.615006e-05  -6.566312e-05  0 
 1.886129e-05  -1.856793e-05  0 
 2.444540e-04  -2.563092e-04  0 
 1.254234e-04  -2.078092e-04  0 
 2.821975e-04  -3.405364e-04  0 
 3.456334e-04  -5.757500e-04  0 
VECTORS displacement_ITER11 FLOAT
 0  0  0 
 2.938083e-04  -1.647079e-04  0 
 -2.395198e-07  -2.059711e-05  0 
 2.663508e-05  -7.608846e-05  0 
 1.085656e-04  -1.167679e-04  0 
 0  0  0 
 0  0  0 
 0  0  0 
 0  0  0 
 8.014707e-05  -1.524800e-04  0 
 8.243147e-05  -2.347847e-04  0 
 1.898818e-04  -3.742378e-04  0 
 6.118552e-05  -1.842463e-05  0 
 1.823029e-04  -8.221117e-05  0 
 1.763499e-04  -7.040173e-05  0 
 2.668742e-04  -8.107593e-05  0 
 1.585911e-04  -1.682826e-05  0 
 8.045839e-05  -5.239837e-05  0 
 2.688396e-04  -1.224547e-04  0 
 2.796935e-05  -2.870421e-05  0 
 3.298830e-05  -3.167072e-05  0 
 7.244241e-05  -1.595965e-04  0 
 8.593072e-06  -1.214914e-05  0 
 5.779553e-05  -1.853621e-04  0 
 9.708905e-05  -2.092131e-04  0 
 5.797076e-05  -1.237661e-04  0 
 3.631871e-05  -6.562428e-05  0 
 1.894127e-05  -1.853346e-05  0 
 2.438010e-04  -2.556516e-04  0 
 1.259196e-04  -2.065542e-04  0 
 2.687786e-04  -3.629634e-04  0 
 3.565750e-04  -6.053080e-04  0 
VECTORS displacement_ITER12 FLOAT
 0  0  0 
 2.937182e-04  -1.644892e-04  0 
 -2.420192e-07  -2.057189e-05  0 
 2.662090e-05  -7.601384e-05  0 
 1.085321e-04  -1.166641e-04  0 
 0  0  0 
 0  0  0 
 0  0  0 
 0  0  0 
 8.011745e-05  -1.523715e-04  0 
 8.243451e-05  -2.347017e-04  0 
 1.898238e-04  -3.740943e-04  0 
 6.199154e-05  -1.112796e-05  0 
 1.860872e-04  -7.916955e-05  0 
 1.664151e-04  -6.781164e-05  0 
 2.669502e-04  -8.131849e-05  0 
 1.537771e-04  -7.526818e-06  0 
 8.126564e-05  -4.729631e-05  0 
 2.748335e-04  -1.179470e-04  0 
 2.740173e-05  -2.678495e-05  0 
 3.300064e-05  -3.150949e-05  0 
 7.239730e-05  -1.594952e-04  0 
 8.581374e-06  -1.212324e-05  0 
 5.776966e-05  -1.852589e-04  0 
 9.709234e-05  -2.091541e-04  0 
 5.792574e-05  -1.237341e-04  0 
 3.627015e-05  -6.556488e-05  0 
 1.894439e-05  -1.846670e-05  0 
 2.436955e-04  -2.555813e-04  0 
 1.258566e-04  -2.064103e-04  0 
 2.639640e-04  -3.578110e-04  0 
 3.599723e-04  -6.053763e-04  0 
VECTORS displacement_ITER13 FLOAT
 0  0  0 
 2.938663e-04  -1.642862e-04  0 
 -2.049578e-07  -2.054733e-05  0 
 2.669234e-05  -7.596806e-05  0 
 1.086338e-04  -1.165590e-04  0 
 0  0  0 
 0  0  0 
 0  0  0 
 0  0  0 
 8.016200e-05  -1.522180e-04  0 
 8.243602e-05  -2.345831e-04  0 
 1.898142e-04  -3.739860e-04  0 
 6.037826e-05  -1.228658e-05  0 
 1.843687e-04  -8.010054e-05  0 
 1.645830e-04  -7.319338e-05  0 
 2.621077e-04  -8.519292e-05  0 
 1.499714e-04  -1.190645e-05  0 
 8.078133e-05  -4.769066e-05  0 
 2.726380e-04  -1.186502e-04  0 
 2.726459e-05  -2.660099e-05  0 
 3.298846e-05  -3.156342e-05  0 
 7.244011e-05  -1.594301e-04  0 
 8.591971e-06  -1.212859e-05  0 
 5.778370e-05  -1.851571e-04  0 
 9.708357e-05  -2.090548e-04  0 
 5.791917e-05  -1.236743e-04  0 
 3.629871e-05  -6.556161e-05  0 
 1.894402e-05  -1.848934e-05  0 
 2.436884e-04  -2.554789e-04  0 
 1.259196e-04  -2.062967e-04  0 
 2.648880e-04  -3.562353e-04  0 
 3.608446e-04  -6.081187e-04  0 
VECTORS displacement_ITER14 FLOAT
 0  0  0 
 2.938530e-04  -1.642997e-04  0 
 -2.072585e-07  -2.054845e-05  0 
 2.668681e-05  -7.597027e-05  0 
 1.086251e-04  -1.165651e-04  0 
 0  0  0 
 0  0  0 
 0  0  0 
 0  0  0 
 8.015823e-05  -1.522285e-04  0 
 8.243567e-05  -2.345891e-04  0 
 1.898031e-04  -3.739803e-04  0 
 6.071453e-05  -1.230176e-05  0 
 1.846873e-04  -7.997582e-05  0 
 1.631405e-04  -7.540208e-05  0 
 2.633439e-04  -8.454321e-05  0 
 1.511439e-04  -1.096981e-05  0 
 8.085041e-05  -4.777751e-05  0 
 2.727818e-04  -1.183281e-04  0 
 2.731579e-05  -2.671190e-05  0 
 3.298695e-05  -3.155981e-05  0 
 7.243632e-05  -1.594327e-04  0 
 8.591332e-06  -1.212803e-05  0 
 5.778267e-05  -1.851632e-04  0 
 9.708217e-05  -2.090632e-04  0 
 5.791988e-05  -1.236757e-04  0 
 3.629676e-05  -6.556003e-05  0 
 1.894351e-05  -1.848812e-05  0 
 2.436799e-04  -2.554749e-04  0 
 1.259140e-04  -2.063033e-04  0 
 2.643033e-04  -3.571472e-04  0 
 3.606292e-04  -6.084823e-04  0 
CELL_DATA 43
TENSORS element_stresses FLOAT
 3.263500e-04  -5.027575e-04  0 
 -5.027575e-04  -4.676563e-06  0 
 0  0  0 

 4.200338e-04  -4.286488e-04  0 
 -4.286488e-04  5.273674e-05  0 
 0  0  0 

 2.545247e-04  -5.642494e-05  0 
 -5.642494e-05  -6.160874e-05  0 
 0  0  0 

 3.688864e-04  -7.375490e-05  0 
 -7.375490e-05  -1.014220e-04  0 
 0  0  0 

 1.089351e-04  -4.000017e-04  0 
 -4.000017e-04  4.529576e-06  0 
 0  0  0 

 4.658279e-04  -1.558277e-04  0 
 -1.558277e-04  -5.233423e-05  0 
 0  0  0 

 2.886658e-04  5.886779e-05  0 
 5.886779e-05  5.272217e-05  0 
 0  0  0 

 7.810690e-04  -5.703888e-04  0 
 -5.703888e-04  1.338570e-04  0 
 0  0  0 

 6.583924e-04  -6.135221e-04  0 
 -6.135221e-04  1.027643e-04  0 
 0  0  0 

 4.699369e-04  -1.312790e-04  0 
 -1.312790e-04  -6.808471e-06  0 
 0  0  0 

 1.854899e-05  -1.517981e-04  0 
 -1.517981e-04  6.459343e-05  0 
 0  0  0 

 1.951465e-04  -1.335825e-04  0 
 -1.335825e-04  5.854394e-05  0 
 0  0  0 

 1.951465e-04  -1.335825e-04  0 
 -1.335825e-04  5.854394e-05  0 
 0  0  0 

 2.070335e-04  -8.397578e-05  0 
 -8.397578e-05  -4.266267e-05  0 
 0  0  0 

 2.786869e-04  -2.315078e-04  0 
 -2.315078e-04  1.460686e-04  0 
 0  0  0 

 2.221373e-04  -4.830070e-05  0 
 -4.830070e-05  -1.554077e-05  0 
 0  0  0 

 2.709624e-01  -1.491922e-01  0 
 -1.491922e-01  -1.893019e-01  0 
 0  0  0 

 1.519034e-03  -2.412930e-02  0 
 -2.412930e-02  7.826893e-03  0 
 0  0  0 

 5.793762e-02  -5.725169e-02  0 
 -5.725169e-02  1.738129e-02  0 
 0  0  0 

 -2.505228e-03  -5.005746e-02  0 
 -5.005746e-02  -9.015485e-02  0 
 0  0  0 

 -1.418905e-02  -2.167055e-01  0 
 -2.167055e-01  7.025632e-02  0 
 0  0  0 

 1.115596e-01  -1.819460e-01  0 
 -1.819460e-01  -9.918884e-02  0 
 0  0  0 

 9.383148e-02  -2.053427e-01  0 
 -2.053427e-01  4.825333e-02  0 
 0  0  0 

 1.517540e-01  -2.628656e-01  0 
 -2.628656e-01  9.808162e-02  0 
 0  0  0 

 3.877728e-02  -1.027301e-02  0 
 -1.027301e-02  -3.178095e-01  0 
 0  0  0 

 7.153956e-02  -9.855997e-02  0 
 -9.855997e-02  -5.361029e-01  0 
 0  0  0 

 9.499355e-02  -9.980149e-02  0 
 -9.980149e-02  -4.194240e-02  0 
 0  0  0 

 8.075543e-02  -1.001234e-01  0 
 -1.001234e-01  -4.275855e-02  0 
 0  0  0 

 6.512586e-02  -1.319954e-01  0 
 -1.319954e-01  -6.971073e-02  0 
 0  0  0 

 7.781292e-02  -2.428044e-02  0 
 -2.428044e-02  -1.301540e-02  0 
 0  0  0 

 6.718176e-01  -4.019765e-01  0 
 -4.019765e-01  -2.303140e-01  0 
 0  0  0 

 2.101804e-01  -4.061212e-01  0 
 -4.061212e-01  1.113391e-01  0 
 0  0  0 

 1.849338e-01  -3.027003e-01  0 
 -3.027003e-01  -2.895925e-01  0 
 0  0  0 

 1.171522e-01  -1.443507e-01  0 
 -1.443507e-01  8.152741e-02  0 
 0  0  0 

 1.084203e-01  -1.399910e-01  0 
 -1.399910e-01  -1.283060e-03  0 
 0  0  0 

 -8.616216e-03  -1.055500e-01  0 
 -1.055500e-01  -1.409848e-01  0 
 0  0  0 

 -6.513884e-02  -6.135138e-02  0 
 -6.135138e-02  1.180735e-01  0 
 0  0  0 

 2.508515e-01  -4.255383e-01  0 
 -4.255383e-01  1.574347e-01  0 
 0  0  0 

 1.255525e-01  -8.577401e-02  0 
 -8.577401e-02  3.766576e-02  0 
 0  0  0 

 1.308196e-01  -8.394692e-02  0 
 -8.394692e-02  3.533992e-02  0 
 0  0  0 

 1.042360e-03  -7.654117e-04  0 
 -7.654117e-04  -1.673454e-05  0 
 0  0  0 

 1.080423e-03  -8.673112e-04  0 
 -8.673112e-04  -2.334379e-04  0 
 0  0  0 

 1.120252e-03  -9.182218e-04  0 
 -9.182218e-04  -4.542936e-04  0 
 0  0  0 

TENSORS element_stresses FLOAT
 3.263500e-04  -5.027575e-04  0 
 -5.027575e-04  -4.676563e-06  0 
 0  0  0 

 4.200338e-04  -4.286488e-04  0 
 -4.286488e-04  5.273674e-05  0 
 0  0  0 

 2.545247e-04  -5.642494e-05  0 
 -5.642494e-05  -6.160874e-05  0 
 0  0  0 

 3.688864e-04  -7.375490e-05  0 
 -7.375490e-05  -1.014220e-04  0 
 0  0  0 

 1.089351e-04  -4.000017e-04  0 
 -4.000017e-04  4.529576e-06  0 
 0  0  0 

 4.658279e-04  -1.558277e-04  0 
 -1.558277e-04  -5.233423e-05  0 
 0  0  0 

 2.886658e-04  5.886779e-05  0 
 5.886779e-05  5.272217e-05  0 
 0  0  0 

 7.810690e-04  -5.703888e-04  0 
 -5.703888e-04  1.338570e-04  0 
 0  0  0 

 6.583924e-04  -6.135221e-04  0 
 -6.135221e-04  1.027643e-04  0 
 0  0  0 

 4.699369e-04  -1.312790e-04  0 
 -1.312790e-04  -6.808471e-06  0 
 0  0  0 

 1.854899e-05  -1.517981e-04  0 
 -1.517981e-04  6.459343e-05  0 
 0  0  0 

 1.951465e-04  -1.335825e-04  0 
 -1.335825e-04  5.854394e-05  0 
 0  0  0 

 1.951465e-04  -1.335825e-04  0 
 -1.335825e-04  5.854394e-05  0 
 0  0  0 

 2.070335e-04  -8.397578e-05  0 
 -8.397578e-05  -4.266267e-05  0 
 0  0  0 

 2.786869e-04  -2.315078e-04  0 
 -2.315078e-04  1.460686e-04  0 
 0  0  0 

 2.221373e-04  -4.830070e-05  0 
 -4.830070e-05  -1.554077e-05  0 
 0  0  0 

 2.709624e-01  -1.491922e-01  0 
 -1.491922e-01  -1.893019e-01  0 
 0  0  0 

 1.519034e-03  -2.412930e-02  0 
 -2.412930e-02  7.826893e-03  0 
 0  0  0 

 5.793762e-02  -5.725169e-02  0 
 -5.725169e-02  1.738129e-02  0 
 0  0  0 

 -2.505228e-03  -5.005746e-02  0 
 -5.005746e-02  -9.015485e-02  0 
 0  0  0 

 -1.418905e-02  -2.167055e-01  0 
 -2.167055e-01  7.025632e-02  0 
 0  0  0 

 1.115596e-01  -1.819460e-01  0 
 -1.819460e-01  -9.918884e-02  0 
 0  0  0 

 9.383148e-02  -2.053427e-01  0 
 -2.053427e-01  4.825333e-02  0 
 0  0  0 

 1.517540e-01  -2.628656e-01  0 
 -2.628656e-01  9.808162e-02  0 
 0  0  0 

 3.877728e-02  -1.027301e-02  0 
 -1.027301e-02  -3.178095e-01  0 
 0  0  0 

 7.153956e-02  -9.855997e-02  0 
 -9.855997e-02  -5.361029e-01  0 
 0  0  0 

 9.499355e-02  -9.980149e-02  0 
 -9.980149e-02  -4.194240e-02  0 
 0  0  0 

 8.075543e-02  -1.001234e-01  0 
 -1.001234e-01  -4.275855e-02  0 
 0  0  0 

 6.512586e-02  -1.319954e-01  0 
 -1.319954e-01  -6.971073e-02  0 
 0  0  0 

 7.781292e-02  -2.428044e-02  0 
 -2.428044e-02  -1.301540e-02  0 
 0  0  0 

 6.718176e-01  -4.019765e-01  0 
 -4.019765e-01  -2.303140e-01  0 
 0  0  0 

 2.101804e-01  -4.061212e-01  0 
 -4.061212e-01  1.113391e-01  0 
 0  0  0 

 1.849338e-01  -3.027003e-01  0 
 -3.027003e-01  -2.895925e-01  0 
 0  0  0 

 1.171522e-01  -1.443507e-01  0 
 -1.443507e-01  8.152741e-02  0 
 0  0  0 

 1.084203e-01  -1.399910e-01  0 
 -1.399910e-01  -1.283060e-03  0 
 0  0  0 

 -8.616216e-03  -1.055500e-01  0 
 -1.055500e-01  -1.409848e-01  0 
 0  0  0 

 -6.513884e-02  -6.135138e-02  0 
 -6.135138e-02  1.180735e-01  0 
 0  0  0 

 2.508515e-01  -4.255383e-01  0 
 -4.255383e-01  1.574347e-01  0 
 0  0  0 

 1.255525e-01  -8.577401e-02  0 
 -8.577401e-02  3.766576e-02  0 
 0  0  0 

 1.308196e-01  -8.394692e-02  0 
 -8.394692e-02  3.533992e-02  0 
 0  0  0 

 1.042360e-03  -7.654117e-04  0 
 -7.654117e-04  -1.673454e-05  0 
 0  0  0 

 1.080423e-03  -8.673112e-04  0 
 -8.673112e-04  -2.334379e-04  0 
 0  0  0 

 1.120252e-03  -9.182218e-04  0 
 -9.182218e-04  -4.542936e-04  0 
 0  0  0 

