# vtk DataFile Version 3.1
this is an vtk file created by FEMAC
ASCII
DATASET UNSTRUCTURED_GRID
POINTS 31 FLOAT
0.000000 1.000000 0.000000
1.000000 1.000000 0.000000
0.000000 2.000000 0.000000
1.000000 2.000000 0.000000
0.250000 1.000000 0.000000
0.500000 1.000000 0.000000
0.750000 1.000000 0.000000
0.250000 2.000000 0.000000
0.500000 2.000000 0.000000
0.750000 2.000000 0.000000
0.000000 1.250000 0.000000
0.000000 1.500000 0.000000
0.000000 1.750000 0.000000
1.000000 1.250000 0.000000
1.000000 1.500000 0.000000
1.000000 1.750000 0.000000
1.000000 2.250000 0.000000
0.272476 1.537430 0.000000
0.660302 1.785301 0.000000
0.660045 1.212404 0.000000
0.162952 1.171693 0.000000
0.825570 1.361866 0.000000
0.825957 1.628272 0.000000
0.594871 1.497465 0.000000
0.400442 1.782533 0.000000
0.372389 1.253823 0.000000
0.165804 1.339408 0.000000
0.847252 1.832715 0.000000
0.847123 1.164854 0.000000
0.153820 1.761660 0.000000
0.847123 2.164854 0.000000
CELLS 42 168 
3 8 18  9
3 19  5  6
3 4 20  0
3 20 10  0
3 14 22 21
3 23 19 21
3 24 18  8
3 19 25  5
3 23 24 17
3 23 18 24
3 25 23 17
3 19 23 25
3 21 13 14
3 15 22 14
3 25  4  5
3 20  4 25
3 7 24  8
3 23 22 18
3 21 22 23
3 20 26 10
3 9 27  3
3 27 15  3
3 27  9 18
3 28  6  1
3 13 28  1
3 6 28 19
3 26 25 17
3 20 25 26
3 27 22 15
3 18 22 27
3 21 28 13
3 21 19 28
3 26 11 10
3 11 26 17
3 29  7  2
3 12 29  2
3 11 29 12
3 24 29 17
3 29 24  7
3 11 17 29
3 30  9  3
3 16 30  3
CELL_TYPES 42
5 5 5 5 5 5 5 5 5 5 5 5 5 5 5 5 5 5 5 5 5 5 5 5 5 5 5 5 5 5 5 5 5 5 5 5 5 5 5 5 5 5 
POINT_DATA 31
VECTORS displacement_ITER1 FLOAT
 0  0  0 
 -1.236367e-03  2.082269e-02  0 
 0  0  0 
 -8.724866e-02  8.113666e-02  0 
 8.744271e-04  -5.089274e-04  0 
 1.321329e-03  3.216166e-03  0 
 6.427368e-04  1.322656e-02  0 
 -2.204391e-02  1.484901e-02  0 
 -4.949549e-02  1.929149e-02  0 
 -8.719989e-02  2.562715e-02  0 
 0  0  0 
 0  0  0 
 0  0  0 
 -1.292891e-02  1.842520e-02  0 
 -2.649804e-02  2.426159e-02  0 
 -5.015822e-02  4.791732e-02  0 
 -1.427812e-01  8.116375e-02  0 
 -7.920899e-03  -4.802775e-03  0 
 -3.806882e-02  1.029240e-02  0 
 -6.708045e-03  7.194975e-03  0 
 -1.531614e-03  -2.537262e-03  0 
 -1.428436e-02  1.383302e-02  0 
 -2.831791e-02  2.253886e-02  0 
 -1.462681e-02  4.150719e-03  0 
 -2.372950e-02  1.336428e-03  0 
 -4.335891e-03  -1.958074e-03  0 
 -3.073661e-03  -3.441865e-03  0 
 -5.200573e-02  4.018782e-02  0 
 -7.092598e-03  1.430033e-02  0 
 -6.349166e-03  -2.122488e-03  0 
 -1.238555e-01  4.720901e-02  0 
VECTORS displacement_ITER2 FLOAT
 0  0  0 
 3.919571e-02  5.997884e-02  0 
 0  0  0 
 1.812981e-02  -8.574893e-02  0 
 3.611942e-03  1.609452e-03  0 
 7.833073e-03  5.025617e-03  0 
 1.918147e-02  2.433109e-02  0 
 1.111843e-03  4.206364e-03  0 
 7.083845e-03  -1.212241e-04  0 
 1.811779e-02  -2.107684e-02  0 
 0  0  0 
 0  0  0 
 0  0  0 
 8.457916e-04  2.219189e-02  0 
 -1.086790e-02  -1.050827e-02  0 
 -5.550656e-03  -4.398998e-02  0 
 8.280958e-02  -8.578124e-02  0 
 -5.060684e-03  1.360443e-04  0 
 -7.902418e-03  -8.695147e-03  0 
 -3.492933e-03  2.539750e-03  0 
 -1.627470e-03  -2.619347e-03  0 
 -1.100417e-02  9.551997e-04  0 
 -1.526273e-02  -1.741629e-02  0 
 -1.411611e-02  -5.191011e-03  0 
 -4.015161e-03  2.935028e-03  0 
 -4.671904e-03  -4.244639e-03  0 
 -1.808914e-03  -1.798996e-03  0 
 -5.440251e-03  -3.525303e-02  0 
 4.936204e-03  1.714688e-02  0 
 -1.044618e-03  2.820425e-03  0 
 6.077191e-02  -4.621746e-02  0 
VECTORS displacement_ITER3 FLOAT
 0  0  0 
 2.632758e-02  7.348456e-02  0 
 0  0  0 
 1.686327e-03  -1.361232e-02  0 
 1.138441e-02  1.723034e-02  0 
 1.536853e-02  2.924141e-02  0 
 1.783363e-02  4.802040e-02  0 
 -5.574316e-03  1.141158e-02  0 
 -5.170874e-03  1.910203e-02  0 
 1.683272e-03  1.832584e-02  0 
 0  0  0 
 0  0  0 
 0  0  0 
 9.265869e-04  4.604960e-02  0 
 -5.745892e-03  2.988629e-02  0 
 -7.080578e-03  8.379012e-03  0 
 3.360194e-02  -1.360885e-02  0 
 -3.694915e-03  8.948594e-03  0 
 -8.501329e-03  2.015591e-02  0 
 1.357602e-03  3.154218e-02  0 
 9.463480e-05  3.997133e-03  0 
 -4.185577e-03  3.304632e-02  0 
 -1.103314e-02  2.000830e-02  0 
 -8.595752e-03  1.969489e-02  0 
 -5.597389e-03  1.548448e-02  0 
 -1.215135e-03  1.332436e-02  0 
 -1.009474e-03  4.433226e-03  0 
 -8.482218e-03  1.088222e-02  0 
 5.174397e-03  4.390196e-02  0 
 -1.835441e-03  5.409801e-03  0 
 2.273444e-02  5.911458e-03  0 
VECTORS displacement_ITER4 FLOAT
 0  0  0 
 -5.329044e-02  -2.917649e-02  0 
 0  0  0 
 -9.908937e-03  1.010309e-02  0 
 -4.535158e-03  3.793672e-03  0 
 -1.543005e-02  3.764517e-03  0 
 -3.489722e-02  -6.557735e-03  0 
 -2.832559e-03  2.837284e-03  0 
 -5.109877e-03  6.751466e-03  0 
 -9.884280e-03  9.574356e-03  0 
 0  0  0 
 0  0  0 
 0  0  0 
 -3.009814e-02  -2.230895e-02  0 
 -1.258231e-02  -4.522141e-03  0 
 -1.083857e-02  4.057643e-04  0 
 -1.047024e-02  1.013648e-02  0 
 -3.488609e-03  5.226348e-03  0 
 -5.127236e-03  5.449596e-03  0 
 -1.788615e-02  5.575690e-03  0 
 -3.367030e-03  2.737576e-03  0 
 -1.432320e-02  -5.122673e-04  0 
 -8.276432e-03  2.073847e-03  0 
 -7.513442e-03  6.222196e-03  0 
 -3.218077e-03  5.296754e-03  0 
 -8.704854e-03  7.471089e-03  0 
 -3.466924e-03  3.866955e-03  0 
 -7.817350e-03  6.688626e-03  0 
 -3.012106e-02  -8.233890e-03  0 
 -1.669296e-03  2.458274e-03  0 
 -1.026599e-02  9.789352e-03  0 
VECTORS displacement_ITER5 FLOAT
 0  0  0 
 -2.908823e-02  -1.481009e-03  0 
 0  0  0 
 -1.316277e-03  1.447895e-02  0 
 -1.018493e-03  4.997781e-03  0 
 -7.069398e-03  4.706574e-03  0 
 -1.983950e-02  3.778591e-04  0 
 8.121713e-04  -2.758755e-03  0 
 8.754739e-04  4.641357e-04  0 
 -1.282980e-03  6.438078e-03  0 
 0  0  0 
 0  0  0 
 0  0  0 
 -2.035340e-02  -1.274188e-02  0 
 -5.917568e-03  -3.965584e-03  0 
 -2.556571e-03  -7.310502e-04  0 
 -9.390795e-03  1.452414e-02  0 
 -1.944144e-03  4.490802e-03  0 
 1.638968e-03  3.653300e-03  0 
 -1.209846e-02  7.072601e-03  0 
 -1.984812e-03  2.403449e-03  0 
 -9.198528e-03  2.396480e-03  0 
 -1.842636e-03  1.957759e-03  0 
 -3.768675e-03  6.594127e-03  0 
 4.738711e-04  2.594453e-03  0 
 -5.387804e-03  6.767786e-03  0 
 -2.152939e-03  3.260314e-03  0 
 1.138735e-03  5.768386e-03  0 
 -2.099299e-02  -5.421945e-04  0 
 -8.705237e-04  1.488018e-03  0 
 -6.622978e-03  9.576480e-03  0 
VECTORS displacement_ITER6 FLOAT
 0  0  0 
 4.610724e-03  4.380059e-02  0 
 0  0  0 
 1.126082e-02  6.559029e-03  0 
 5.100935e-03  8.629786e-03  0 
 6.061035e-03  1.121891e-02  0 
 3.059471e-03  1.924992e-02  0 
 2.765910e-03  -4.002598e-03  0 
 5.914484e-03  -8.973816e-04  0 
 1.128414e-02  4.549471e-03  0 
 0  0  0 
 0  0  0 
 0  0  0 
 -6.913316e-03  1.318855e-02  0 
 -5.176342e-04  6.568171e-03  0 
 7.352048e-03  1.250897e-03  0 
 9.211858e-03  6.603643e-03  0 
 -9.718984e-04  5.414671e-03  0 
 5.965966e-03  6.869258e-03  0 
 -4.129492e-03  1.530859e-02  0 
 -1.457713e-04  2.481657e-03  0 
 -4.173745e-03  1.424674e-02  0 
 2.464259e-03  8.088538e-03  0 
 -1.649216e-03  1.163840e-02  0 
 2.473201e-03  4.055140e-03  0 
 -1.395014e-03  8.026435e-03  0 
 -6.454600e-04  3.159103e-03  0 
 9.078121e-03  4.838467e-03  0 
 -6.931429e-03  1.950009e-02  0 
 -3.423496e-04  1.892807e-03  0 
 9.927329e-03  5.339399e-03  0 
VECTORS displacement_ITER7 FLOAT
 0  0  0 
 -1.914255e-02  1.512775e-02  0 
 0  0  0 
 5.623266e-03  9.901425e-03  0 
 -1.335074e-03  3.966760e-05  0 
 -3.825230e-03  -2.242987e-03  0 
 -1.157529e-02  3.842933e-04  0 
 2.251422e-03  -4.334731e-03  0 
 3.805089e-03  -1.414923e-03  0 
 5.661086e-03  5.965119e-03  0 
 0  0  0 
 0  0  0 
 0  0  0 
 -1.795658e-02  -4.155587e-03  0 
 -9.005288e-03  -2.353843e-03  0 
 -5.535825e-04  7.755966e-04  0 
 1.670777e-03  9.940359e-03  0 
 -1.721076e-03  3.547839e-03  0 
 2.889003e-03  4.783031e-03  0 
 -1.189396e-02  4.075932e-03  0 
 -1.361139e-03  3.949315e-04  0 
 -1.128214e-02  3.303620e-03  0 
 -2.353502e-03  3.666092e-03  0 
 -4.526573e-03  6.524137e-03  0 
 1.289045e-03  2.489777e-03  0 
 -4.440909e-03  2.641400e-03  0 
 -1.480544e-03  1.723474e-03  0 
 3.564681e-03  5.440029e-03  0 
 -1.861056e-02  4.028076e-03  0 
 -5.988210e-04  1.293613e-03  0 
 3.033537e-03  7.510851e-03  0 
VECTORS displacement_ITER8 FLOAT
 0  0  0 
 -1.597216e-02  1.790278e-02  0 
 0  0  0 
 4.985016e-03  8.694968e-03  0 
 -6.649452e-04  -5.667180e-04  0 
 -1.419927e-03  -2.536884e-03  0 
 -7.368314e-03  1.764482e-03  0 
 1.897186e-03  -4.526153e-03  0 
 2.780862e-03  -3.098560e-03  0 
 5.017826e-03  2.781263e-03  0 
 0  0  0 
 0  0  0 
 0  0  0 
 -1.397156e-02  -2.115693e-04  0 
 -7.819240e-03  3.446093e-05  0 
 1.374465e-03  3.228311e-03  0 
 -9.513445e-04  8.734450e-03  0 
 -1.536149e-03  2.487209e-03  0 
 2.430843e-03  3.629641e-03  0 
 -9.707297e-03  4.289185e-03  0 
 -9.112427e-04  -7.138972e-05  0 
 -9.440354e-03  4.499113e-03  0 
 -1.298143e-03  4.768551e-03  0 
 -3.664308e-03  6.132738e-03  0 
 7.138945e-04  1.218174e-03  0 
 -3.352571e-03  1.721460e-03  0 
 -1.141860e-03  1.041253e-03  0 
 3.792962e-03  4.521305e-03  0 
 -1.513509e-02  6.711439e-03  0 
 -6.703682e-04  7.156311e-04  0 
 1.087055e-03  5.092446e-03  0 
VECTORS displacement_ITER9 FLOAT
 0  0  0 
 -2.066813e-03  2.538705e-02  0 
 0  0  0 
 3.738145e-03  -2.260250e-04  0 
 1.338331e-03  -7.576412e-04  0 
 4.512369e-03  -1.584240e-03  0 
 3.807113e-03  6.087747e-03  0 
 1.581544e-03  -3.974249e-03  0 
 2.136059e-03  -3.954536e-03  0 
 3.771471e-03  -2.699390e-04  0 
 0  0  0 
 0  0  0 
 0  0  0 
 -3.427186e-03  6.763307e-03  0 
 -4.807074e-03  2.239694e-03  0 
 1.328631e-04  2.225280e-03  0 
 3.685820e-03  -1.990535e-04  0 
 -1.189315e-03  4.314110e-04  0 
 6.434532e-04  1.056751e-03  0 
 -3.864376e-03  4.008511e-03  0 
 -1.139222e-04  -1.021274e-03  0 
 -4.666907e-03  4.904260e-03  0 
 -1.580585e-03  2.953298e-03  0 
 -2.777645e-03  3.134044e-03  0 
 -8.662645e-05  -4.206631e-04  0 
 -1.169257e-03  -6.830469e-04  0 
 -4.029458e-04  -3.980170e-04  0 
 1.247371e-03  1.162497e-03  0 
 -5.200059e-03  1.093746e-02  0 
 -5.780556e-04  -1.184500e-05  0 
 3.716335e-03  -2.403926e-04  0 
VECTORS displacement_ITER10 FLOAT
 0  0  0 
 -1.495510e-02  3.033039e-03  0 
 0  0  0 
 -2.272796e-03  3.774195e-03  0 
 -5.602887e-04  -2.487081e-03  0 
 1.322823e-03  -4.052417e-03  0 
 -2.141931e-03  -1.828632e-03  0 
 6.031574e-04  -3.701926e-03  0 
 -5.686047e-04  -5.668169e-03  0 
 -2.240659e-03  -3.421643e-03  0 
 0  0  0 
 0  0  0 
 0  0  0 
 -3.305410e-03  -2.153763e-03  0 
 -3.537367e-03  9.409379e-05  0 
 -3.927251e-04  5.087481e-03  0 
 -9.479847e-03  3.800071e-03  0 
 -8.539812e-04  -1.190797e-03  0 
 -6.432765e-04  -2.208374e-03  0 
 -3.679453e-03  5.949784e-04  0 
 -2.512238e-04  -1.200585e-03  0 
 -2.798120e-03  4.778124e-04  0 
 -3.505845e-04  1.354101e-03  0 
 -1.237248e-03  2.521053e-04  0 
 -9.730436e-04  -2.835709e-03  0 
 -1.112230e-03  -1.746196e-03  0 
 -4.712784e-04  -9.033559e-04  0 
 -7.557801e-04  7.631361e-04  0 
 -6.376470e-03  3.688502e-03  0 
 -6.502896e-04  -9.622071e-04  0 
 -7.012946e-03  -6.149056e-04  0 
VECTORS displacement_ITER11 FLOAT
 0  0  0 
 -1.732613e-02  -1.474277e-03  0 
 0  0  0 
 -3.929267e-03  3.189651e-03  0 
 -7.352819e-04  -2.218525e-03  0 
 8.360155e-04  -2.813258e-03  0 
 -3.118038e-03  -1.374544e-03  0 
 -8.127532e-04  -6.389892e-04  0 
 -2.232110e-03  -1.731474e-03  0 
 -3.898290e-03  3.208971e-05  0 
 0  0  0 
 0  0  0 
 0  0  0 
 -3.197074e-03  -3.083984e-04  0 
 -4.407962e-03  3.765980e-03  0 
 -3.193761e-03  8.079992e-03  0 
 -7.088141e-03  3.206409e-03  0 
 -9.769522e-04  -5.876444e-04  0 
 -2.785902e-03  4.831483e-04  0 
 -3.261432e-03  1.664482e-03  0 
 -2.751615e-04  -9.325475e-04  0 
 -2.700621e-03  2.111527e-03  0 
 -2.286937e-03  3.552539e-03  0 
 -1.856298e-03  1.218749e-03  0 
 -2.027516e-03  -6.686963e-04  0 
 -1.153459e-03  -1.188002e-03  0 
 -4.749363e-04  -6.262455e-04  0 
 -3.683602e-03  3.192686e-03  0 
 -5.832423e-03  4.258658e-03  0 
 -7.259432e-04  -3.349115e-04  0 
 -6.002922e-03  1.268895e-03  0 
VECTORS displacement_ITER12 FLOAT
 0  0  0 
 -2.191580e-03  1.507851e-02  0 
 0  0  0 
 1.015536e-03  -5.713597e-03  0 
 1.617075e-03  1.725456e-04  0 
 5.156546e-03  1.973853e-03  0 
 5.242532e-03  7.707449e-03  0 
 -1.266451e-03  2.549536e-03  0 
 -9.767291e-04  2.610148e-03  0 
 1.041018e-03  2.235122e-03  0 
 0  0  0 
 0  0  0 
 0  0  0 
 1.404753e-03  1.214573e-02  0 
 -3.590295e-03  1.016243e-02  0 
 -2.968246e-03  7.464744e-03  0 
 8.973288e-03  -5.708836e-03  0 
 -9.919046e-04  7.953587e-04  0 
 -3.443428e-03  4.235565e-03  0 
 -3.249851e-05  5.906897e-03  0 
 2.114406e-04  -4.929157e-04  0 
 -1.452279e-03  7.999068e-03  0 
 -3.707494e-03  6.362475e-03  0 
 -2.614191e-03  3.788828e-03  0 
 -2.219541e-03  2.826660e-03  0 
 -8.170885e-05  7.283106e-05  0 
 -4.283700e-05  -2.028127e-04  0 
 -3.638434e-03  3.008309e-03  0 
 3.481713e-04  1.231505e-02  0 
 -5.575283e-04  8.838663e-04  0 
 6.268436e-03  -8.461988e-04  0 
VECTORS displacement_ITER13 FLOAT
 0  0  0 
 -3.583160e-03  2.516478e-03  0 
 0  0  0 
 -2.098041e-04  -3.150356e-04  0 
 -4.003044e-04  -1.262458e-03  0 
 1.045792e-03  -1.288221e-03  0 
 4.595459e-04  -5.753315e-04  0 
 -1.857588e-04  8.700664e-04  0 
 3.261029e-04  -4.105975e-04  0 
 -1.776921e-04  -1.946887e-03  0 
 0  0  0 
 0  0  0 
 0  0  0 
 -6.381319e-04  2.056705e-03  0 
 -1.696183e-03  2.852213e-03  0 
 -1.578968e-03  3.434890e-03  0 
 -1.829214e-03  -3.082397e-04  0 
 -4.087442e-04  -2.475141e-04  0 
 -1.414632e-03  -1.109655e-04  0 
 -6.283405e-04  4.550232e-04  0 
 -5.661758e-05  -5.258716e-04  0 
 -9.804666e-04  1.534589e-03  0 
 -1.308893e-03  1.464218e-03  0 
 -1.111276e-03  3.099954e-04  0 
 -9.556747e-04  3.488279e-04  0 
 -2.495055e-04  -1.056771e-03  0 
 -6.294213e-05  -4.265800e-04  0 
 -1.326838e-03  5.246706e-04  0 
 -1.297548e-03  2.345475e-03  0 
 -1.830874e-04  1.957249e-04  0 
 -1.271021e-03  -1.303209e-03  0 
VECTORS displacement_ITER14 FLOAT
 0  0  0 
 -4.218153e-03  -1.620133e-03  0 
 0  0  0 
 -4.864145e-06  2.173499e-03  0 
 -1.117471e-03  -1.376279e-03  0 
 -8.657720e-04  -1.932777e-03  0 
 -1.948982e-03  -3.074912e-03  0 
 2.243381e-04  4.164407e-04  0 
 8.957637e-04  -8.520989e-04  0 
 3.037692e-05  -2.143482e-03  0 
 0  0  0 
 0  0  0 
 0  0  0 
 -2.106579e-03  -1.228457e-03  0 
 -1.275896e-03  6.477711e-04  0 
 -1.147753e-03  2.031801e-03  0 
 -4.306194e-03  2.181126e-03  0 
 -2.203571e-04  -1.777674e-04  0 
 -4.665082e-04  -7.028244e-04  0 
 -1.189191e-03  -9.923735e-04  0 
 -2.029932e-04  -3.089962e-04  0 
 -1.181060e-03  -2.797188e-04  0 
 -6.205287e-04  2.502570e-04  0 
 -6.875506e-04  -2.752241e-04  0 
 -3.503039e-04  2.031764e-05  0 
 -4.590698e-04  -9.024437e-04  0 
 -1.178580e-04  -2.312294e-04  0 
 -2.645403e-04  3.758625e-04  0 
 -2.385562e-03  -1.050366e-03  0 
 -3.730912e-05  1.553631e-04  0 
 -2.834247e-03  -4.545529e-04  0 
VECTORS displacement_ITER15 FLOAT
 0  0  0 
 1.641201e-03  2.590021e-03  0 
 0  0  0 
 1.982335e-03  1.438075e-03  0 
 -5.853589e-04  2.939894e-05  0 
 -9.028172e-04  3.555151e-05  0 
 -9.076698e-04  -7.226659e-04  0 
 5.923848e-04  8.749821e-04  0 
 1.921893e-03  8.002159e-04  0 
 2.020940e-03  -1.634329e-04  0 
 0  0  0 
 0  0  0 
 0  0  0 
 -1.750137e-03  1.045675e-03  0 
 -6.958485e-04  1.225658e-03  0 
 -8.674124e-04  5.107993e-04  0 
 4.070803e-04  1.441180e-03  0 
 -9.006373e-05  7.015066e-04  0 
 2.771034e-04  7.501220e-04  0 
 -5.978154e-04  -2.138280e-05  0 
 -1.696102e-04  2.399663e-04  0 
 -9.965506e-04  7.551461e-04  0 
 -6.395204e-04  5.183275e-04  0 
 -6.349248e-04  6.093912e-04  0 
 2.924422e-04  1.243101e-03  0 
 -3.175673e-04  2.324924e-04  0 
 -4.578567e-05  3.089505e-04  0 
 6.066918e-04  7.763203e-04  0 
 -1.064888e-03  -3.535351e-04  0 
 1.378065e-04  6.564022e-04  0 
 9.490839e-04  4.727771e-04  0 
VECTORS displacement_ITER16 FLOAT
 0  0  0 
 1.207587e-03  -1.319625e-03  0 
 0  0  0 
 7.941721e-04  2.294348e-03  0 
 -5.537913e-04  6.023711e-04  0 
 -1.552380e-03  5.088872e-04  0 
 -1.706590e-03  -1.355404e-03  0 
 7.917912e-04  6.171184e-05  0 
 1.524501e-03  5.194776e-05  0 
 8.367513e-04  -1.549346e-06  0 
 0  0  0 
 0  0  0 
 0  0  0 
 -8.120174e-04  -1.169582e-03  0 
 3.557516e-04  -4.079002e-04  0 
 -6.970328e-04  -1.918070e-04  0 
 -1.467333e-03  2.294333e-03  0 
 1.055238e-04  4.143117e-04  0 
 6.683622e-04  -1.562953e-04  0 
 -1.071286e-04  -5.629663e-04  0 
 -1.737419e-04  4.735968e-04  0 
 2.115022e-05  -6.656818e-04  0 
 1.540114e-04  -5.881656e-04  0 
 1.711322e-04  -2.059776e-04  0 
 5.789768e-04  2.750970e-04  0 
 -1.582780e-04  5.560687e-04  0 
 -4.542446e-05  3.794309e-04  0 
 5.612532e-04  5.057458e-04  0 
 -4.044753e-04  -2.073985e-03  0 
 1.754205e-04  3.251696e-04  0 
 -6.926036e-04  9.068709e-04  0 
VECTORS displacement_ITER17 FLOAT
 0  0  0 
 1.123097e-03  -1.503811e-03  0 
 0  0  0 
 3.822525e-04  5.795337e-04  0 
 1.287074e-04  1.359430e-03  0 
 -6.549240e-04  1.765566e-03  0 
 -5.748571e-04  6.926066e-04  0 
 4.430505e-04  3.684876e-04  0 
 7.192622e-04  9.336805e-04  0 
 4.255581e-04  1.679002e-03  0 
 0  0  0 
 0  0  0 
 0  0  0 
 9.561311e-04  5.140900e-04  0 
 6.211810e-04  8.871472e-04  0 
 -7.700633e-04  8.463849e-04  0 
 1.526043e-03  5.722558e-04  0 
 1.610264e-04  5.305427e-04  0 
 2.332602e-04  7.777035e-04  0 
 7.099939e-04  6.419759e-04  0 
 -2.861668e-05  6.322357e-04  0 
 8.498509e-04  2.984201e-04  0 
 6.135703e-05  3.509805e-04  0 
 4.358635e-04  3.026721e-04  0 
 3.733072e-04  5.608450e-04  0 
 1.590084e-04  1.080666e-03  0 
 3.213765e-05  4.813870e-04  0 
 -2.702954e-04  1.106121e-03  0 
 1.055578e-03  -2.770536e-04  0 
 1.281910e-04  3.308441e-04  0 
 1.138604e-03  1.268763e-03  0 
VECTORS displacement_ITER18 FLOAT
 0  0  0 
 7.810734e-04  -3.435090e-03  0 
 0  0  0 
 -4.552388e-04  6.969341e-05  0 
 5.676273e-06  6.033983e-04  0 
 -5.890572e-04  5.055824e-04  0 
 -2.201497e-04  -3.279678e-04  0 
 3.756982e-04  -1.529492e-04  0 
 2.046189e-04  3.366907e-05  0 
 -4.105399e-04  5.391367e-04  0 
 0  0  0 
 0  0  0 
 0  0  0 
 1.488711e-03  -6.959102e-04  0 
 5.461767e-04  -4.751144e-04  0 
 -4.334132e-04  1.133454e-04  0 
 6.245125e-05  6.020329e-05  0 
 2.049704e-04  -9.969531e-05  0 
 1.149397e-04  -3.053592e-04  0 
 8.101483e-04  -5.467769e-04  0 
 2.273446e-05  2.748540e-04  0 
 9.776355e-04  -9.995001e-04  0 
 2.591511e-04  -5.370232e-04  0 
 6.195304e-04  -6.635867e-04  0 
 2.749887e-04  -3.468917e-04  0 
 2.782007e-04  2.720969e-04  0 
 7.325135e-05  9.973449e-05  0 
 -3.684031e-04  1.273322e-04  0 
 1.407717e-03  -1.274733e-03  0 
 1.072767e-04  -4.580426e-05  0 
 -1.124163e-04  3.742597e-04  0 
VECTORS displacement_ITER19 FLOAT
 0  0  0 
 1.891434e-03  -2.170898e-03  0 
 0  0  0 
 -5.674948e-04  -1.219763e-03  0 
 -1.623489e-04  -4.971948e-04  0 
 -3.616922e-04  -1.054224e-03  0 
 6.094020e-04  -8.057387e-04  0 
 6.025011e-05  -2.324873e-06  0 
 -2.555106e-04  -5.991763e-05  0 
 -5.217294e-04  -3.982685e-04  0 
 0  0  0 
 0  0  0 
 0  0  0 
 8.819238e-04  -3.822462e-04  0 
 -5.827825e-04  -1.134860e-03  0 
 -4.873494e-04  -1.042469e-03  0 
 3.046593e-04  -1.230076e-03  0 
 3.657476e-05  -4.707527e-04  0 
 -3.860939e-04  -6.152398e-04  0 
 3.737510e-04  -1.574705e-03  0 
 2.845003e-05  -2.376120e-04  0 
 6.071302e-06  -1.511051e-03  0 
 -4.419494e-04  -9.241602e-04  0 
 5.321373e-06  -1.109973e-03  0 
 -6.923493e-05  -4.558884e-04  0 
 1.658963e-04  -7.369377e-04  0 
 6.847046e-05  -3.081117e-04  0 
 -5.469114e-04  -8.169452e-04  0 
 1.207429e-03  -1.472961e-03  0 
 4.066534e-05  -1.506128e-04  0 
 8.779197e-06  -6.994120e-04  0 
VECTORS displacement_ITER20 FLOAT
 0  0  0 
 1.460432e-03  -2.066149e-03  0 
 0  0  0 
 -9.503192e-04  -8.364337e-04  0 
 -1.822952e-04  -7.725471e-04  0 
 -2.455946e-04  -1.388017e-03  0 
 5.400644e-04  -1.116916e-03  0 
 -2.438143e-04  1.153705e-04  0 
 -6.662017e-04  -1.114815e-04  0 
 -9.019185e-04  -5.862905e-04  0 
 0  0  0 
 0  0  0 
 0  0  0 
 7.040961e-05  -7.064283e-04  0 
 -9.045150e-04  -1.325632e-03  0 
 -4.477204e-04  -1.269878e-03  0 
 -6.476338e-04  -8.457651e-04  0 
 -5.250037e-05  -5.434448e-04  0 
 -5.573217e-04  -6.346391e-04  0 
 5.698320e-05  -1.691877e-03  0 
 1.370616e-05  -3.775558e-04  0 
 -4.400560e-04  -1.488193e-03  0 
 -6.067797e-04  -8.994050e-04  0 
 -2.340597e-04  -1.046354e-03  0 
 -2.735129e-04  -4.435018e-04  0 
 6.227681e-05  -9.394153e-04  0 
 3.367747e-05  -3.999971e-04  0 
 -5.829277e-04  -8.922850e-04  0 
 6.275524e-04  -1.615250e-03  0 
 -1.892251e-05  -1.999649e-04  0 
 -7.492036e-04  -6.640312e-04  0 
VECTORS displacement_ITER21 FLOAT
 0  0  0 
 3.133258e-04  -1.330056e-03  0 
 0  0  0 
 -5.909721e-04  -3.397014e-04  0 
 1.720480e-04  -3.953713e-05  0 
 1.598433e-04  -6.083575e-05  0 
 2.778688e-04  -1.116992e-05  0 
 -5.320198e-04  4.446124e-04  0 
 -8.424658e-04  4.442046e-04  0 
 -5.397954e-04  5.074338e-04  0 
 0  0  0 
 0  0  0 
 0  0  0 
 -5.605392e-04  -8.294483e-05  0 
 -7.211070e-04  -1.263265e-04  0 
 -2.318475e-04  -4.313645e-04  0 
 3.116494e-04  -3.483301e-04  0 
 -9.432246e-05  -7.057268e-05  0 
 -4.683919e-04  3.842443e-04  0 
 -2.947201e-05  -2.610758e-04  0 
 1.812225e-05  -1.069565e-04  0 
 -4.541333e-04  -1.350176e-04  0 
 -5.381856e-04  1.439000e-04  0 
 -2.771349e-04  2.356632e-05  0 
 -3.365407e-04  1.853438e-04  0 
 -1.772021e-07  -1.416080e-04  0 
 -7.343561e-06  -9.417735e-05  0 
 -4.381393e-04  -1.115962e-05  0 
 1.018422e-04  -4.423793e-04  0 
 -6.943256e-05  -2.476722e-05  0 
 6.065131e-06  1.994134e-04  0 
VECTORS displacement_ITER22 FLOAT
 0  0  0 
 -8.491048e-04  -6.057363e-04  0 
 0  0  0 
 -1.489465e-04  3.380834e-04  0 
 4.288269e-04  6.252020e-04  0 
 4.743435e-04  1.186185e-03  0 
 -5.542980e-05  8.276954e-04  0 
 -5.350851e-04  1.001687e-04  0 
 -7.597789e-04  4.189805e-05  0 
 -9.395137e-05  6.430884e-04  0 
 0  0  0 
 0  0  0 
 0  0  0 
 -9.989911e-04  -1.310498e-04  0 
 -2.297619e-04  3.518885e-04  0 
 2.066631e-04  -4.461045e-05  0 
 2.136375e-04  3.318584e-04  0 
 -1.199244e-04  2.007134e-04  0 
 -7.763825e-05  6.326909e-04  0 
 -1.107410e-04  9.121806e-04  0 
 -3.739651e-06  1.369032e-04  0 
 -2.783155e-04  7.184716e-04  0 
 -1.223707e-04  5.667043e-04  0 
 -1.465528e-04  6.807960e-04  0 
 -2.447627e-04  2.061272e-04  0 
 -8.960068e-05  5.505028e-04  0 
 -7.445032e-05  1.509601e-04  0 
 5.596062e-05  3.411097e-04  0 
 -4.522978e-04  3.957554e-04  0 
 -1.211276e-04  -2.406502e-05  0 
 9.296052e-05  5.478994e-04  0 
VECTORS displacement_ITER23 FLOAT
 0  0  0 
 -6.083712e-04  4.640673e-04  0 
 0  0  0 
 -3.496450e-04  1.387983e-05  0 
 8.921018e-05  -2.177678e-05  0 
 2.702625e-04  3.610827e-04  0 
 -1.357156e-07  2.185633e-04  0 
 -3.599930e-04  -6.092026e-04  0 
 -7.045721e-04  -9.593829e-04  0 
 -2.908399e-04  -3.695878e-04  0 
 0  0  0 
 0  0  0 
 0  0  0 
 -1.415062e-03  -8.672928e-04  0 
 -7.754199e-04  -9.416481e-04  0 
 -2.904513e-04  -8.189419e-04  0 
 -6.734580e-04  9.765801e-06  0 
 -2.616802e-04  -1.516950e-04  0 
 -1.701557e-04  -2.608270e-04  0 
 -6.015641e-04  1.107416e-04  0 
 -1.018297e-04  -1.312361e-04  0 
 -8.386326e-04  -1.512026e-04  0 
 -3.889338e-04  -3.552274e-04  0 
 -4.605027e-04  2.732174e-06  0 
 -3.018857e-04  -4.538882e-04  0 
 -3.414648e-04  -5.202254e-05  0 
 -1.667853e-04  -8.668231e-05  0 
 -1.237414e-04  -3.743844e-04  0 
 -9.824057e-04  -6.212127e-05  0 
 -1.888675e-04  -2.336406e-04  0 
 -5.594015e-04  -1.952478e-04  0 
VECTORS displacement_ITER24 FLOAT
 0  0  0 
 -1.008348e-03  9.615871e-04  0 
 0  0  0 
 -6.270389e-04  -3.700055e-04  0 
 -1.974121e-04  -4.481606e-04  0 
 -3.441911e-05  -1.966984e-04  0 
 -1.842210e-04  3.239273e-05  0 
 -4.202271e-04  -4.704123e-04  0 
 -8.234453e-04  -4.817072e-04  0 
 -5.651701e-04  3.001145e-04  0 
 0  0  0 
 0  0  0 
 0  0  0 
 -1.841172e-03  -7.484491e-04  0 
 -1.746532e-03  -1.097285e-03  0 
 -1.420955e-03  -4.871857e-04  0 
 1.065627e-04  -3.739858e-04  0 
 -3.979536e-04  -1.400852e-04  0 
 -6.736484e-04  4.473680e-05  0 
 -1.104560e-03  -2.221279e-04  0 
 -1.891320e-04  -2.660080e-04  0 
 -1.522759e-03  -3.620509e-04  0 
 -1.162185e-03  -3.253542e-04  0 
 -9.382470e-04  -8.854115e-05  0 
 -4.827753e-04  -2.243300e-04  0 
 -5.836250e-04  -3.546774e-04  0 
 -2.334240e-04  -1.565913e-04  0 
 -9.644523e-04  -1.866234e-05  0 
 -1.453947e-03  -8.213089e-07  0 
 -2.381287e-04  -1.594444e-04  0 
 -1.392349e-04  6.683327e-05  0 
VECTORS displacement_ITER25 FLOAT
 0  0  0 
 -1.605988e-03  7.862333e-04  0 
 0  0  0 
 -6.095928e-04  -4.213694e-04  0 
 -1.060410e-04  -1.133146e-04  0 
 3.759407e-05  1.821245e-04  0 
 -1.972450e-04  5.316323e-04  0 
 -2.706246e-04  -3.636257e-04  0 
 -5.292232e-04  -1.072020e-04  0 
 -5.434783e-04  4.195133e-04  0 
 0  0  0 
 0  0  0 
 0  0  0 
 -1.349366e-03  -2.583895e-04  0 
 -1.641296e-03  -5.961490e-04  0 
 -1.770707e-03  -4.088833e-05  0 
 2.974803e-04  -4.232821e-04  0 
 -3.922809e-04  5.456761e-07  0 
 -7.778423e-04  1.726199e-04  0 
 -9.663300e-04  1.962174e-04  0 
 -1.974108e-04  -1.437459e-04  0 
 -1.284939e-03  -4.806449e-05  0 
 -1.257747e-03  -1.470083e-04  0 
 -9.343497e-04  2.538166e-05  0 
 -4.432655e-04  -1.742076e-05  0 
 -5.624044e-04  -1.393469e-04  0 
 -2.290893e-04  -5.857913e-05  0 
 -1.191513e-03  2.125172e-04  0 
 -1.212175e-03  5.765881e-04  0 
 -2.209289e-04  -4.673925e-05  0 
 -6.402714e-06  1.222066e-04  0 
VECTORS displacement_ITER26 FLOAT
 0  0  0 
 -1.327631e-03  6.998092e-04  0 
 0  0  0 
 -2.373388e-04  -3.121801e-04  0 
 1.297858e-04  3.903567e-04  0 
 2.858480e-04  6.137629e-04  0 
 3.037424e-05  8.487092e-04  0 
 8.994375e-05  -5.395456e-04  0 
 1.144619e-04  -4.709909e-04  0 
 -1.666662e-04  -6.206461e-04  0 
 0  0  0 
 0  0  0 
 0  0  0 
 -5.934518e-04  2.911952e-05  0 
 -6.900202e-04  -2.761441e-04  0 
 -9.931039e-04  -1.546883e-04  0 
 -4.782353e-04  -3.108450e-04  0 
 -2.711138e-04  2.681315e-05  0 
 -3.548462e-04  -3.464422e-04  0 
 -4.667402e-04  5.403569e-04  0 
 -1.388218e-04  2.113123e-05  0 
 -5.634462e-04  2.022686e-04  0 
 -5.980244e-04  -2.834670e-04  0 
 -5.393074e-04  7.742643e-08  0 
 -1.906874e-04  -1.905974e-04  0 
 -3.350672e-04  1.200642e-04  0 
 -1.611176e-04  2.251913e-05  0 
 -5.219658e-04  -2.294569e-04  0 
 -6.315987e-04  8.399658e-04  0 
 -1.449434e-04  -3.059856e-05  0 
 -3.897197e-04  -4.689980e-04  0 
VECTORS displacement_ITER27 FLOAT
 0  0  0 
 -9.276475e-04  5.487888e-04  0 
 0  0  0 
 3.395168e-05  -4.299442e-05  0 
 9.683001e-05  4.262415e-04  0 
 1.123387e-04  3.513618e-04  0 
 -1.790702e-04  4.116071e-04  0 
 1.796132e-04  -2.633345e-04  0 
 3.957647e-04  -2.461781e-04  0 
 1.087595e-04  -6.040100e-04  0 
 0  0  0 
 0  0  0 
 0  0  0 
 -8.004472e-04  8.664303e-05  0 
 -4.241223e-04  8.648088e-05  0 
 -5.280935e-04  1.271894e-04  0 
 -4.561095e-04  -4.022157e-05  0 
 -1.816897e-04  1.240097e-04  0 
 -1.575796e-04  -2.140906e-04  0 
 -3.966411e-04  4.121725e-04  0 
 -1.034049e-04  8.624410e-05  0 
 -4.866614e-04  3.436141e-04  0 
 -3.248148e-04  -3.360842e-05  0 
 -3.865072e-04  1.617795e-04  0 
 -7.626800e-05  2.263824e-05  0 
 -2.145590e-04  1.759408e-04  0 
 -1.003452e-04  7.358896e-05  0 
 -1.852731e-04  -1.073673e-04  0 
 -6.657035e-04  4.820722e-04  0 
 -7.599152e-05  7.129493e-05  0 
 -2.819356e-04  -3.519103e-04  0 
VECTORS displacement_ITER28 FLOAT
 0  0  0 
 -7.478305e-04  3.025033e-04  0 
 0  0  0 
 1.153546e-04  2.580160e-04  0 
 -1.137789e-04  1.021980e-04  0 
 -2.753060e-04  -2.263129e-04  0 
 -5.616022e-04  -2.012214e-04  0 
 3.170507e-05  2.719219e-04  0 
 2.576761e-04  4.024824e-04  0 
 1.931076e-04  3.194446e-04  0 
 0  0  0 
 0  0  0 
 0  0  0 
 -1.313181e-03  1.331376e-04  0 
 -7.945697e-04  4.520674e-04  0 
 -6.074381e-04  6.504649e-04  0 
 2.519214e-04  2.607410e-04  0 
 -1.462758e-04  2.403780e-04  0 
 -2.513988e-04  4.351578e-04  0 
 -5.989566e-04  7.721613e-05  0 
 -9.317959e-05  5.493551e-05  0 
 -8.126115e-04  3.738206e-04  0 
 -5.173705e-04  4.506166e-04  0 
 -4.597279e-04  3.908392e-04  0 
 -1.177016e-04  4.589616e-04  0 
 -2.120778e-04  7.816144e-05  0 
 -6.641551e-05  8.664267e-05  0 
 -3.080470e-04  4.745280e-04  0 
 -9.533246e-04  1.920009e-05  0 
 -3.794920e-05  2.044717e-04  0 
 2.128682e-04  3.315894e-04  0 
VECTORS displacement_ITER29 FLOAT
 0  0  0 
 -5.326570e-05  -1.429965e-04  0 
 0  0  0 
 3.058878e-04  3.582460e-04  0 
 -1.816199e-04  -1.600095e-04  0 
 -3.145312e-04  -5.772335e-04  0 
 -3.087426e-04  -5.593741e-04  0 
 1.718002e-04  1.013728e-04  0 
 3.540234e-04  -7.730431e-05  0 
 3.863996e-04  -1.606287e-05  0 
 0  0  0 
 0  0  0 
 0  0  0 
 -6.077843e-04  -1.980319e-04  0 
 -4.530822e-04  -7.161539e-05  0 
 -4.513970e-05  2.554099e-04  0 
 9.798964e-06  3.615978e-04  0 
 -1.572080e-05  4.782682e-05  0 
 8.781581e-05  7.751303e-05  0 
 -3.079999e-04  -3.996933e-04  0 
 -3.255446e-05  -1.744018e-05  0 
 -4.296538e-04  -1.807252e-04  0 
 -1.012411e-04  1.019493e-04  0 
 -1.186917e-04  3.784349e-05  0 
 5.363619e-05  1.129410e-04  0 
 -5.107821e-05  -1.310561e-04  0 
 5.556493e-07  -6.463123e-06  0 
 1.436246e-04  1.448549e-04  0 
 -4.167538e-04  -4.452918e-04  0 
 3.048064e-05  9.389598e-05  0 
 1.184796e-04  1.671256e-04  0 
VECTORS displacement_ITER30 FLOAT
 0  0  0 
 -1.412354e-04  -6.660818e-04  0 
 0  0  0 
 6.998122e-05  2.019345e-04  0 
 -9.679308e-05  -7.119712e-05  0 
 -2.074106e-04  -1.806790e-04  0 
 -1.518711e-04  -1.690687e-04  0 
 1.225454e-04  1.229345e-04  0 
 1.369097e-04  -1.269440e-04  0 
 1.522683e-04  1.539201e-05  0 
 0  0  0 
 0  0  0 
 0  0  0 
 1.456385e-04  -7.553685e-05  0 
 -2.429810e-04  -5.283474e-05  0 
 7.053358e-05  2.080850e-04  0 
 -3.556720e-05  2.050651e-04  0 
 1.960586e-05  -6.834279e-06  0 
 5.745143e-05  1.426531e-05  0 
 -1.712936e-05  -2.124635e-04  0 
 -2.219690e-06  8.761578e-06  0 
 -3.603071e-05  -2.320600e-04  0 
 4.645261e-06  7.480002e-05  0 
 5.611238e-05  -4.802158e-05  0 
 2.650994e-05  -1.384413e-05  0 
 1.489965e-05  -2.774711e-05  0 
 9.177671e-06  -3.982204e-07  0 
 7.993563e-05  6.983355e-05  0 
 1.012122e-04  -2.209857e-04  0 
 3.082893e-05  4.798986e-05  0 
 8.184091e-06  1.267886e-04  0 
VECTORS displacement_ITER31 FLOAT
 0  0  0 
 -3.864600e-04  -9.593597e-04  0 
 0  0  0 
 -3.375850e-04  -9.060635e-05  0 