# vtk DataFile Version 3.1
this is an vtk file created by FEMAC
ASCII
DATASET UNSTRUCTURED_GRID
POINTS 33 FLOAT
5.000000 0.000000 0.000000
6.000000 0.000000 0.000000
6.000000 1.000000 0.000000
4.750000 0.000000 0.000000
5.250000 0.000000 0.000000
5.500000 0.000000 0.000000
5.750000 0.000000 0.000000
5.000000 0.250000 0.000000
5.000000 0.500000 0.000000
5.500000 1.000000 0.000000
5.750000 1.000000 0.000000
6.000000 0.250000 0.000000
6.000000 0.500000 0.000000
6.000000 0.750000 0.000000
6.000000 1.250000 0.000000
6.000000 1.500000 0.000000
4.828307 0.162952 0.000000
4.746177 0.372389 0.000000
5.462570 0.272476 0.000000
5.214699 0.660302 0.000000
5.787596 0.660045 0.000000
5.828307 0.162952 0.000000
5.638134 0.825570 0.000000
5.371728 0.825957 0.000000
5.502535 0.594871 0.000000
5.217467 0.400442 0.000000
5.746177 0.372389 0.000000
5.660592 0.165804 0.000000
5.835146 0.847123 0.000000
5.238340 0.153820 0.000000
5.805000 1.255000 0.000000
5.565925 1.242859 0.000000
5.717271 1.453287 0.000000
CELLS 43 172 
3 16  3  0
3 7 16  0
3 17  7  8
3 16  7 17
3 20 12 13
3 21  6  1
3 11 21  1
3 9 23 22
3 24 20 22
3 25 19  8
3 20 26 12
3 24 25 18
3 24 19 25
3 26 24 18
3 20 24 26
3 22 10  9
3 7 25  8
3 26 11 12
3 21 11 26
3 24 23 19
3 22 23 24
3 21 27  6
3 10 28  2
3 13 28 20
3 28 13  2
3 27 26 18
3 21 26 27
3 22 28 10
3 22 20 28
3 27  5  6
3 5 27 18
3 4 29  0
3 29  7  0
3 5 29  4
3 25 29 18
3 29 25  7
3 5 18 29
3 15 30 14
3 32 31 30
3 30 31 10
3 15 32 30
3 2 30 10
3 2 14 30
CELL_TYPES 43
5 5 5 5 5 5 5 5 5 5 5 5 5 5 5 5 5 5 5 5 5 5 5 5 5 5 5 5 5 5 5 5 5 5 5 5 5 5 5 5 5 5 5 
POINT_DATA 33
VECTORS displacement_ITER1 FLOAT
 -2.116594e-01  -3.233573e-01  0 
 -2.438228e-01  -4.913113e-01  0 
 -1.304608e-01  -4.173926e-01  0 
 -2.116439e-01  -2.953276e-01  0 
 -2.216049e-01  -3.622839e-01  0 
 -2.297894e-01  -3.991400e-01  0 
 -2.380836e-01  -4.409689e-01  0 
 -1.836330e-01  -3.233356e-01  0 
 -1.556300e-01  -3.233238e-01  0 
 -1.235775e-01  -3.791022e-01  0 
 -1.304470e-01  -3.942356e-01  0 
 -2.011047e-01  -4.804715e-01  0 
 -1.700214e-01  -4.623668e-01  0 
 -1.499178e-01  -4.395872e-01  0 
 -1.073180e-01  -4.173672e-01  0 
 -8.418092e-02  -4.173419e-01  0 
 -1.933824e-01  -3.040974e-01  0 
 -1.699157e-01  -2.948937e-01  0 
 -1.875584e-01  -3.862996e-01  0 
 -1.411458e-01  -3.501068e-01  0 
 -1.482557e-01  -4.206396e-01  0 
 -2.117426e-01  -4.509249e-01  0 
 -1.321548e-01  -3.956913e-01  0 
 -1.289839e-01  -3.692567e-01  0 
 -1.488281e-01  -3.868932e-01  0 
 -1.685431e-01  -3.507099e-01  0 
 -1.781903e-01  -4.285655e-01  0 
 -2.078060e-01  -4.206635e-01  0 
 -1.369572e-01  -4.109025e-01  0 
 -1.991112e-01  -3.552447e-01  0 
 -1.068462e-01  -3.993073e-01  0 
 -1.079616e-01  -3.771674e-01  0 
 -8.849161e-02  -3.911676e-01  0 
VECTORS displacement_ITER2 FLOAT
 -1.048138e-01  -1.766177e-01  0 
 -1.439138e-01  -2.632095e-01  0 
 -8.690291e-02  -2.114147e-01  0 
 -1.047925e-01  -1.724151e-01  0 
 -1.174770e-01  -1.937204e-01  0 
 -1.281263e-01  -2.097195e-01  0 
 -1.378142e-01  -2.320325e-01  0 
 -1.006083e-01  -1.765941e-01  0 
 -9.640570e-02  -1.765850e-01  0 
 -8.828029e-02  -1.872420e-01  0 
 -8.689234e-02  -1.833583e-01  0 
 -1.203207e-01  -2.530860e-01  0 
 -1.070712e-01  -2.380759e-01  0 
 -1.012281e-01  -2.219954e-01  0 
 -5.885621e-02  -2.113969e-01  0 
 -3.081879e-02  -2.113805e-01  0 
 -1.020628e-01  -1.737158e-01  0 
 -9.854729e-02  -1.723265e-01  0 
 -1.080942e-01  -1.977214e-01  0 
 -9.234440e-02  -1.793260e-01  0 
 -9.681826e-02  -2.111852e-01  0 
 -1.244025e-01  -2.358181e-01  0 
 -8.767664e-02  -1.921888e-01  0 
 -8.773126e-02  -1.845325e-01  0 
 -9.397398e-02  -1.933475e-01  0 
 -9.924615e-02  -1.814505e-01  0 
 -1.073100e-01  -2.196578e-01  0 
 -1.204867e-01  -2.179961e-01  0 
 -9.353110e-02  -2.010277e-01  0 
 -1.081258e-01  -1.859652e-01  0 
 -5.828883e-02  -1.895127e-01  0 
 -5.964111e-02  -1.626830e-01  0 
 -3.604697e-02  -1.796543e-01  0 
VECTORS displacement_ITER3 FLOAT
 -6.196893e-02  -5.717204e-02  0 
 -1.002629e-01  -1.447600e-01  0 
 -4.709659e-02  -7.924097e-02  0 
 -6.193679e-02  -5.280568e-02  0 
 -7.423974e-02  -7.410456e-02  0 
 -8.458732e-02  -9.014119e-02  0 
 -9.421436e-02  -1.129276e-01  0 
 -5.757090e-02  -5.715725e-02  0 
 -5.317019e-02  -5.712854e-02  0 
 -4.356071e-02  -6.509460e-02  0 
 -4.707884e-02  -7.178528e-02  0 
 -7.598208e-02  -1.346052e-01  0 
 -6.215779e-02  -1.190379e-01  0 
 -5.572292e-02  -1.014361e-01  0 
 -3.965563e-02  -7.923133e-02  0 
 -3.220309e-02  -7.923645e-02  0 
 -5.909778e-02  -5.414258e-02  0 
 -5.540074e-02  -5.268131e-02  0 
 -6.431741e-02  -7.863697e-02  0 
 -4.680679e-02  -6.011496e-02  0 
 -5.147148e-02  -9.192244e-02  0 
 -8.034123e-02  -1.169779e-01  0 
 -4.440183e-02  -7.574766e-02  0 
 -4.203372e-02  -6.515867e-02  0 
 -4.943311e-02  -7.580235e-02  0 
 -5.588839e-02  -6.233361e-02  0 
 -6.254499e-02  -1.007185e-01  0 
 -7.652371e-02  -9.873466e-02  0 
 -4.755089e-02  -8.210600e-02  0 
 -6.487800e-02  -6.653740e-02  0 
 -3.950687e-02  -7.340616e-02  0 
 -3.986338e-02  -6.628604e-02  0 
 -3.361294e-02  -7.079081e-02  0 
VECTORS displacement_ITER4 FLOAT
 -2.078247e-02  -2.251991e-02  0 
 -5.726289e-02  -9.382346e-02  0 
 -1.659617e-02  -2.996851e-02  0 
 -2.075827e-02  -2.034144e-02  0 
 -3.208109e-02  -3.586863e-02  0 
 -4.184201e-02  -4.818172e-02  0 
 -5.120492e-02  -6.660999e-02  0 
 -1.857824e-02  -2.249488e-02  0 
 -1.642301e-02  -2.244763e-02  0 
 -2.016094e-02  -1.986505e-02  0 
 -1.657458e-02  -2.792559e-02  0 
 -3.762189e-02  -8.356016e-02  0 
 -2.860203e-02  -6.795692e-02  0 
 -2.385998e-02  -5.262732e-02  0 
 -1.456734e-02  -2.997560e-02  0 
 -1.250390e-02  -3.000923e-02  0 
 -1.933853e-02  -2.099755e-02  0 
 -1.749441e-02  -2.028086e-02  0 
 -2.575986e-02  -3.736667e-02  0 
 -1.457086e-02  -2.251031e-02  0 
 -2.017007e-02  -4.340677e-02  0 
 -4.029037e-02  -6.914117e-02  0 
 -1.572342e-02  -2.822566e-02  0 
 -1.375758e-02  -2.394391e-02  0 
 -1.619210e-02  -3.215800e-02  0 
 -1.854312e-02  -2.497335e-02  0 
 -2.634011e-02  -5.409190e-02  0 
 -3.639162e-02  -5.408547e-02  0 
 -1.650791e-02  -3.525594e-02  0 
 -2.475292e-02  -2.896002e-02  0 
 -1.453609e-02  -2.835844e-02  0 
 -1.463269e-02  -2.642369e-02  0 
 -1.293021e-02  -2.764546e-02  0 
VECTORS displacement_ITER5 FLOAT
 -9.736334e-03  -1.188891e-02  0 
 -4.780551e-02  -8.292843e-02  0 
 -5.065946e-03  -1.288211e-02  0 
 -9.708203e-03  -1.183758e-02  0 
 -2.164496e-02  -2.385674e-02  0 
 -3.195119e-02  -3.545752e-02  0 
 -4.172090e-02  -5.459379e-02  0 
 -9.657624e-03  -1.187560e-02  0 
 -9.588515e-03  -1.183781e-02  0 
 -4.821216e-03  -1.300166e-02  0 
 -5.043670e-03  -1.280690e-02  0 
 -2.698441e-02  -7.286221e-02  0 
 -1.639343e-02  -5.744717e-02  0 
 -1.238113e-02  -3.961254e-02  0 
 -5.008491e-03  -1.287439e-02  0 
 -4.928580e-03  -1.288545e-02  0 
 -9.681672e-03  -1.182809e-02  0 
 -9.598730e-03  -1.178481e-02  0 
 -1.596055e-02  -2.469514e-02  0 
 -4.989620e-03  -1.257817e-02  0 
 -7.286490e-03  -3.257057e-02  0 
 -3.017089e-02  -5.753859e-02  0 
 -1.828940e-03  -1.854791e-02  0 
 -1.889862e-03  -1.475629e-02  0 
 -4.925869e-03  -2.111182e-02  0 
 -9.815192e-03  -1.296456e-02  0 
 -1.522845e-02  -4.239025e-02  0 
 -2.639899e-02  -4.160625e-02  0 
 -4.095178e-03  -2.143297e-02  0 
 -1.495275e-02  -1.655798e-02  0 
 -5.009527e-03  -1.280257e-02  0 
 -5.007196e-03  -1.276419e-02  0 
 -4.982007e-03  -1.278636e-02  0 
VECTORS displacement_ITER6 FLOAT
 -8.306458e-03  -8.894412e-03  0 
 -4.491650e-02  -7.858733e-02  0 
 -3.054115e-03  -9.052792e-03  0 
 -8.282121e-03  -7.716767e-03  0 
 -1.945006e-02  -2.095871e-02  0 
 -2.926247e-02  -3.248953e-02  0 
 -3.881561e-02  -5.103946e-02  0 
 -7.127235e-03  -8.896042e-03  0 
 -5.841581e-03  -8.919613e-03  0 
 -3.616556e-03  -9.021813e-03  0 
 -3.043017e-03  -8.963365e-03  0 
 -2.488452e-02  -6.844367e-02  0 
 -1.488513e-02  -5.309703e-02  0 
 -1.080130e-02  -3.561878e-02  0 
 -2.996927e-03  -9.025772e-03  0 
 -2.964832e-03  -9.010121e-03  0 
 -7.535249e-03  -8.074052e-03  0 
 -6.517267e-03  -7.624053e-03  0 
 -1.346604e-02  -2.190124e-02  0 
 -3.337158e-03  -9.625374e-03  0 
 -5.889254e-03  -2.831126e-02  0 
 -2.773917e-02  -5.367057e-02  0 
 -6.521473e-04  -1.425714e-02  0 
 -1.365380e-03  -1.078329e-02  0 
 -3.290252e-03  -1.704769e-02  0 
 -6.885922e-03  -1.048095e-02  0 
 -1.343110e-02  -3.850728e-02  0 
 -2.386181e-02  -3.834657e-02  0 
 -2.501979e-03  -1.746551e-02  0 
 -1.260505e-02  -1.406129e-02  0 
 -2.986653e-03  -8.974706e-03  0 
 -2.983320e-03  -8.924544e-03  0 
 -2.980607e-03  -8.968102e-03  0 
VECTORS displacement_ITER7 FLOAT
 -5.639135e-03  -7.119563e-03  0 
 -4.273307e-02  -7.678423e-02  0 
 -3.152927e-03  -8.604670e-03  0 
 -5.627975e-03  -6.351373e-03  0 
 -1.717767e-02  -1.950799e-02  0 
 -2.711826e-02  -3.107213e-02  0 
 -3.664903e-02  -4.944620e-02  0 
 -4.881726e-03  -7.093717e-03  0 
 -4.097680e-03  -7.060141e-03  0 
 -3.042610e-03  -7.728989e-03  0 
 -3.140277e-03  -8.076600e-03  0 
 -2.292648e-02  -6.661729e-02  0 
 -1.329125e-02  -5.119690e-02  0 
 -9.889014e-03  -3.389538e-02  0 
 -2.652916e-03  -8.580215e-03  0 
 -2.170554e-03  -8.566828e-03  0 
 -5.135552e-03  -6.588248e-03  0 
 -4.493133e-03  -6.312402e-03  0 
 -1.148174e-02  -2.044609e-02  0 
 -2.241732e-03  -8.608397e-03  0 
 -4.780331e-03  -2.698743e-02  0 
 -2.569844e-02  -5.202595e-02  0 
 -1.884645e-04  -1.335155e-02  0 
 -6.676570e-04  -1.010879e-02  0 
 -1.973711e-03  -1.596399e-02  0 
 -5.088486e-03  -9.014394e-03  0 
 -1.160053e-02  -3.698864e-02  0 
 -2.183849e-02  -3.684396e-02  0 
 -2.206639e-03  -1.642854e-02  0 
 -1.039794e-02  -1.248470e-02  0 
 -2.635169e-03  -8.181174e-03  0 
 -2.651140e-03  -7.714481e-03  0 
 -2.272488e-03  -8.012712e-03  0 
VECTORS displacement_ITER8 FLOAT
 -5.387672e-03  -6.841119e-03  0 
 -4.244991e-02  -7.638866e-02  0 
 -2.921174e-03  -8.042426e-03  0 
 -5.379346e-03  -6.082586e-03  0 
 -1.690658e-02  -1.917625e-02  0 
 -2.683864e-02  -3.070372e-02  0 
 -3.636926e-02  -4.905940e-02  0 
 -4.641197e-03  -6.806535e-03  0 
 -3.930413e-03  -6.778002e-03  0 
 -2.844035e-03  -7.228615e-03  0 
 -2.907761e-03  -7.608429e-03  0 
 -2.265189e-02  -6.622021e-02  0 
 -1.305356e-02  -5.076793e-02  0 
 -9.671688e-03  -3.343497e-02  0 
 -2.513883e-03  -8.018395e-03  0 
 -2.126359e-03  -8.008764e-03  0 
 -4.888291e-03  -6.316038e-03  0 
 -4.283979e-03  -6.082006e-03  0 
 -1.123483e-02  -2.009238e-02  0 
 -2.056152e-03  -8.344145e-03  0 
 -4.546218e-03  -2.655925e-02  0 
 -2.542296e-02  -5.164077e-02  0 
 4.586334e-05  -1.291151e-02  0 
 -3.713381e-04  -9.915522e-03  0 
 -1.705068e-03  -1.564876e-02  0 
 -4.868550e-03  -8.685940e-03  0 
 -1.132756e-02  -3.661824e-02  0 
 -2.157001e-02  -3.646390e-02  0 
 -1.966220e-03  -1.595490e-02  0 
 -1.014722e-02  -1.216134e-02  0 
 -2.498506e-03  -7.690982e-03  0 
 -2.512911e-03  -7.286366e-03  0 
 -2.196665e-03  -7.549249e-03  0 
VECTORS displacement_ITER9 FLOAT
 -5.277712e-03  -6.623079e-03  0 
 -4.233547e-02  -7.609857e-02  0 
 -2.878205e-03  -7.862314e-03  0 
 -5.263490e-03  -5.898586e-03  0 
 -1.679948e-02  -1.896778e-02  0 
 -2.672763e-02  -3.048203e-02  0 
 -3.625305e-02  -4.880887e-02  0 
 -4.554011e-03  -6.594833e-03  0 
 -3.853138e-03  -6.570935e-03  0 
 -2.815643e-03  -7.047626e-03  0 
 -2.857653e-03  -7.440004e-03  0 
 -2.257762e-02  -6.592864e-02  0 
 -1.300643e-02  -5.049236e-02  0 
 -9.618689e-03  -3.320469e-02  0 
 -2.471812e-03  -7.840003e-03  0 
 -2.073377e-03  -7.836951e-03  0 
 -4.795824e-03  -6.115001e-03  0 
 -4.203940e-03  -5.884487e-03  0 
 -1.113962e-02  -1.987178e-02  0 
 -1.932517e-03  -8.233899e-03  0 
 -4.514772e-03  -2.630084e-02  0 
 -2.533218e-02  -5.137435e-02  0 
 3.392580e-05  -1.267869e-02  0 
 -4.811802e-04  -9.506857e-03  0 
 -1.667907e-03  -1.537138e-02  0 
 -4.777496e-03  -8.514944e-03  0 
 -1.127256e-02  -3.635352e-02  0 
 -2.147373e-02  -3.622619e-02  0 
 -1.935482e-03  -1.575489e-02  0 
 -1.004659e-02  -1.195634e-02  0 
 -2.458724e-03  -7.506779e-03  0 
 -2.466552e-03  -7.107712e-03  0 
 -2.154974e-03  -7.358106e-03  0 
VECTORS displacement_ITER10 FLOAT
 -5.239188e-03  -6.565640e-03  0 
 -4.231358e-02  -7.604799e-02  0 
 -2.881843e-03  -7.848640e-03  0 
 -5.223594e-03  -5.857874e-03  0 
 -1.677272e-02  -1.892062e-02  0 
 -2.670532e-02  -3.043678e-02  0 
 -3.623108e-02  -4.876145e-02  0 
 -4.530790e-03  -6.542153e-03  0 
 -3.838228e-03  -6.514520e-03  0 
 -2.825005e-03  -7.013529e-03  0 
 -2.861563e-03  -7.418914e-03  0 
 -2.255917e-02  -6.587810e-02  0 
 -1.299196e-02  -5.044381e-02  0 
 -9.610031e-03  -3.316757e-02  0 
 -2.468534e-03  -7.826363e-03  0 
 -2.062471e-03  -7.822429e-03  0 
 -4.769282e-03  -6.069484e-03  0 
 -4.180524e-03  -5.835885e-03  0 
 -1.111907e-02  -1.982426e-02  0 
 -1.935995e-03  -8.203050e-03  0 
 -4.508817e-03  -2.626208e-02  0 
 -2.531238e-02  -5.132587e-02  0 
 3.249875e-05  -1.264458e-02  0 
 -4.784437e-04  -9.467779e-03  0 
 -1.662342e-03  -1.533011e-02  0 
 -4.761886e-03  -8.469520e-03  0 
 -1.125648e-02  -3.630635e-02  0 
 -2.145375e-02  -3.617966e-02  0 
 -1.935741e-03  -1.572778e-02  0 
 -1.002085e-02  -1.190514e-02  0 
 -2.455226e-03  -7.487891e-03  0 
 -2.463809e-03  -7.082923e-03  0 
 -2.143393e-03  -7.334771e-03  0 
VECTORS displacement_ITER11 FLOAT
 -5.241820e-03  -6.567336e-03  0 
 -4.230870e-02  -7.603968e-02  0 
 -2.871427e-03  -7.825479e-03  0 
 -5.226554e-03  -5.854572e-03  0 
 -1.677023e-02  -1.891806e-02  0 
 -2.670051e-02  -3.043191e-02  0 
 -3.622599e-02  -4.875491e-02  0 
 -4.528608e-03  -6.542898e-03  0 
 -3.832525e-03  -6.516339e-03  0 
 -2.809670e-03  -7.001636e-03  0 
 -2.850520e-03  -7.401592e-03  0 
 -2.255590e-02  -6.586985e-02  0 
 -1.298789e-02  -5.043661e-02  0 
 -9.604067e-03  -3.315695e-02  0 
 -2.463041e-03  -7.803368e-03  0 
 -2.060772e-03  -7.799986e-03  0 
 -4.768452e-03  -6.067728e-03  0 
 -4.178263e-03  -5.835432e-03  0 
 -1.111539e-02  -1.982057e-02  0 
 -1.933026e-03  -8.201016e-03  0 
 -4.502211e-03  -2.625259e-02  0 
 -2.530847e-02  -5.131847e-02  0 
 4.423909e-05  -1.263330e-02  0 
 -4.661391e-04  -9.452742e-03  0 
 -1.658081e-03  -1.532065e-02  0 
 -4.756844e-03  -8.468592e-03  0 
 -1.125365e-02  -3.629832e-02  0 
 -2.144943e-02  -3.617365e-02  0 
 -1.925286e-03  -1.571273e-02  0 
 -1.001861e-02  -1.190471e-02  0 
 -2.450036e-03  -7.468149e-03  0 
 -2.458496e-03  -7.065354e-03  0 
 -2.140490e-03  -7.315929e-03  0 
VECTORS displacement_ITER12 FLOAT
 -5.244861e-03  -6.567618e-03  0 
 -4.231192e-02  -7.604001e-02  0 
 -2.870217e-03  -7.822798e-03  0 
 -5.229694e-03  -5.854027e-03  0 
 -1.677292e-02  -1.891712e-02  0 
 -2.670339e-02  -3.043087e-02  0 
 -3.622915e-02  -4.875443e-02  0 
 -4.530996e-03  -6.542845e-03  0 
 -3.833782e-03  -6.516159e-03  0 
 -2.809386e-03  -7.000850e-03  0 
 -2.849334e-03  -7.399832e-03  0 
 -2.255824e-02  -6.587034e-02  0 
 -1.298902e-02  -5.043740e-02  0 
 -9.604191e-03  -3.315711e-02  0 
 -2.462804e-03  -7.800722e-03  0 
 -2.061440e-03  -7.797333e-03  0 
 -4.770901e-03  -6.067421e-03  0 
 -4.180227e-03  -5.834469e-03  0 
 -1.111808e-02  -1.981937e-02  0 
 -1.936075e-03  -8.194705e-03  0 
 -4.502477e-03  -2.625249e-02  0 
 -2.531118e-02  -5.131824e-02  0 
 4.584552e-05  -1.263237e-02  0 
 -4.632027e-04  -9.454853e-03  0 
 -1.659341e-03  -1.531981e-02  0 
 -4.759066e-03  -8.466193e-03  0 
 -1.125562e-02  -3.629788e-02  0 
 -2.145217e-02  -3.617278e-02  0 
 -1.924147e-03  -1.571148e-02  0 
 -1.002133e-02  -1.190370e-02  0 
 -2.449829e-03  -7.466256e-03  0 
 -2.458247e-03  -7.064616e-03  0 
 -2.140928e-03  -7.314246e-03  0 
VECTORS displacement_ITER13 FLOAT
 -5.244007e-03  -6.567215e-03  0 
 -4.231123e-02  -7.603950e-02  0 
 -2.870101e-03  -7.822996e-03  0 
 -5.228889e-03  -5.853759e-03  0 
 -1.677223e-02  -1.891683e-02  0 
 -2.670274e-02  -3.043056e-02  0 
 -3.622847e-02  -4.875404e-02  0 
 -4.530415e-03  -6.542369e-03  0 
 -3.833365e-03  -6.515684e-03  0 
 -2.809176e-03  -7.000425e-03  0 
 -2.849216e-03  -7.399840e-03  0 
 -2.255769e-02  -6.586981e-02  0 
 -1.298865e-02  -5.043686e-02  0 
 -9.603921e-03  -3.315680e-02  0 
 -2.462495e-03  -7.800920e-03  0 
 -2.060921e-03  -7.797524e-03  0 
 -4.770176e-03  -6.067156e-03  0 
 -4.179709e-03  -5.834085e-03  0 
 -1.111747e-02  -1.981908e-02  0 
 -1.935556e-03  -8.195201e-03  0 
 -4.502259e-03  -2.625211e-02  0 
 -2.531057e-02  -5.131781e-02  0 
 4.580600e-05  -1.263209e-02  0 
 -4.633831e-04  -9.454060e-03  0 
 -1.659011e-03  -1.531947e-02  0 
 -4.758532e-03  -8.466083e-03  0 
 -1.125515e-02  -3.629748e-02  0 
 -2.145156e-02  -3.617245e-02  0 
 -1.924068e-03  -1.571138e-02  0 
 -1.002069e-02  -1.190337e-02  0 
 -2.449516e-03  -7.466301e-03  0 
 -2.457994e-03  -7.064324e-03  0 
 -2.140519e-03  -7.314355e-03  0 
VECTORS displacement_ITER14 FLOAT
 -5.244075e-03  -6.567298e-03  0 
 -4.231124e-02  -7.603964e-02  0 
 -2.870066e-03  -7.822931e-03  0 
 -5.228956e-03  -5.853808e-03  0 
 -1.677227e-02  -1.891686e-02  0 
 -2.670276e-02  -3.043060e-02  0 
 -3.622849e-02  -4.875412e-02  0 
 -4.530446e-03  -6.542468e-03  0 
 -3.833380e-03  -6.515786e-03  0 
 -2.809149e-03  -7.000464e-03  0 
 -2.849178e-03  -7.399825e-03  0 
 -2.255764e-02  -6.586995e-02  0 
 -1.298862e-02  -5.043692e-02  0 
 -9.603908e-03  -3.315677e-02  0 
 -2.462506e-03  -7.800853e-03  0 
 -2.060978e-03  -7.797456e-03  0 
 -4.770228e-03  -6.067222e-03  0 
 -4.179730e-03  -5.834167e-03  0 
 -1.111748e-02  -1.981913e-02  0 
 -1.935263e-03  -8.194962e-03  0 
 -4.502203e-03  -2.625212e-02  0 
 -2.531055e-02  -5.131793e-02  0 
 4.575911e-05  -1.263214e-02  0 
 -4.635711e-04  -9.454529e-03  0 
 -1.658852e-03  -1.531962e-02  0 
 -4.758540e-03  -8.466062e-03  0 
 -1.125506e-02  -3.629761e-02  0 
 -2.145155e-02  -3.617252e-02  0 
 -1.924066e-03  -1.571137e-02  0 
 -1.002072e-02  -1.190341e-02  0 
 -2.449528e-03  -7.466269e-03  0 
 -2.458001e-03  -7.064335e-03  0 
 -2.140562e-03  -7.314331e-03  0 
CELL_DATA 43
TENSORS element_stresses FLOAT
 -4.608555e-02  -7.524770e-03  0 
 -7.524770e-03  4.797526e-02  0 
 0  0  0 

 -2.293242e-02  2.782179e-02  0 
 2.782179e-02  9.244282e-02  0 
 0  0  0 

 -5.778212e-03  3.784232e-02  0 
 3.784232e-02  1.049910e-01  0 
 0  0  0 

 -2.263007e-02  2.241671e-02  0 
 2.241671e-02  1.599505e-02  0 
 0  0  0 

 -9.908290e-03  -3.710887e-02  0 
 -3.710887e-02  6.614811e-02  0 
 0  0  0 

 -1.463351e-02  -2.342196e-02  0 
 -2.342196e-02  3.232501e-02  0 
 0  0  0 

 -1.299213e-02  -2.028136e-02  0 
 -2.028136e-02  3.678114e-02  0 
 0  0  0 

 9.615642e-03  -2.058812e-02  0 
 -2.058812e-02  2.575139e-02  0 
 0  0  0 

 -1.785456e-03  -2.467169e-02  0 
 -2.467169e-02  3.896396e-02  0 
 0  0  0 

 1.108673e-03  1.800123e-03  0 
 1.800123e-03  1.284953e-03  0 
 0  0  0 

 -6.811026e-03  -4.047102e-02  0 
 -4.047102e-02  4.425081e-02  0 
 0  0  0 

 -4.868531e-03  -4.680453e-03  0 
 -4.680453e-03  1.704046e-02  0 
 0  0  0 

 4.036032e-03  -1.051816e-02  0 
 -1.051816e-02  1.992235e-03  0 
 0  0  0 

 -5.140113e-03  -2.704350e-02  0 
 -2.704350e-02  2.058332e-02  0 
 0  0  0 

 -3.645883e-03  -1.704092e-02  0 
 -1.704092e-02  4.072706e-02  0 
 0  0  0 

 1.005077e-02  -1.391637e-02  0 
 -1.391637e-02  3.403628e-02  0 
 0  0  0 

 -3.237079e-03  -4.716165e-03  0 
 -4.716165e-03  -8.643994e-04  0 
 0  0  0 

 -8.300705e-03  -3.728111e-02  0 
 -3.728111e-02  5.924189e-02  0 
 0  0  0 

 -5.909639e-03  -3.061905e-02  0 
 -3.061905e-02  3.032605e-02  0 
 0  0  0 

 6.995671e-03  -1.171244e-02  0 
 -1.171244e-02  1.514705e-02  0 
 0  0  0 

 8.257390e-03  -4.339034e-03  0 
 -4.339034e-03  2.112144e-02  0 
 0  0  0 

 -1.479244e-02  -9.547818e-03  0 
 -9.547818e-03  2.300059e-02  0 
 0  0  0 

 1.752078e-02  -5.992542e-03  0 
 -5.992542e-03  5.868110e-02  0 
 0  0  0 

 -1.289749e-02  -3.144955e-02  0 
 -3.144955e-02  6.853082e-02  0 
 0  0  0 

 -3.475772e-04  -1.475908e-02  0 
 -1.475908e-02  1.012311e-01  0 
 0  0  0 

 -1.393960e-02  -7.504290e-03  0 
 -7.504290e-03  2.329396e-02  0 
 0  0  0 

 -1.214309e-02  -2.400411e-02  0 
 -2.400411e-02  3.290579e-02  0 
 0  0  0 

 4.518346e-03  -2.407002e-02  0 
 -2.407002e-02  4.439541e-02  0 
 0  0  0 

 7.447600e-03  -4.329114e-03  0 
 -4.329114e-03  6.427630e-02  0 
 0  0  0 

 -2.988473e-02  -3.628900e-03  0 
 -3.628900e-03  2.739396e-02  0 
 0  0  0 

 -1.553897e-02  -9.615229e-03  0 
 -9.615229e-03  2.514400e-02  0 
 0  0  0 

 -3.687645e-02  -6.924077e-03  0 
 -6.924077e-03  3.078772e-02  0 
 0  0  0 

 -2.401518e-02  -1.507559e-02  0 
 -1.507559e-02  -7.105232e-03  0 
 0  0  0 

 -2.977006e-02  -3.979632e-03  0 
 -3.979632e-03  3.317308e-02  0 
 0  0  0 

 -1.356519e-02  -1.601660e-02  0 
 -1.601660e-02  6.411086e-03  0 
 0  0  0 

 -1.230473e-02  2.006287e-03  0 
 2.006287e-03  8.768187e-03  0 
 0  0  0 

 -2.553973e-02  4.422159e-04  0 
 4.422159e-04  2.412278e-02  0 
 0  0  0 

 -2.340269e-02  -8.411947e-02  0 
 -8.411947e-02  6.568814e-03  0 
 0  0  0 

 -3.972303e-02  -1.100364e-01  0 
 -1.100364e-01  1.001630e-02  0 
 0  0  0 

 -1.503727e-02  -8.427774e-02  0 
 -8.427774e-02  9.866902e-02  0 
 0  0  0 

 2.775849e-02  -1.094423e-01  0 
 -1.094423e-01  1.785321e-02  0 
 0  0  0 

 -5.737567e-02  -8.241877e-02  0 
 -8.241877e-02  8.725659e-02  0 
 0  0  0 

 1.910288e-03  -6.408647e-02  0 
 -6.408647e-02  8.888326e-02  0 
 0  0  0 

TENSORS element_stresses FLOAT
 -4.608555e-02  -7.524770e-03  0 
 -7.524770e-03  4.797526e-02  0 
 0  0  0 

 -2.293242e-02  2.782179e-02  0 
 2.782179e-02  9.244282e-02  0 
 0  0  0 

 -5.778212e-03  3.784232e-02  0 
 3.784232e-02  1.049910e-01  0 
 0  0  0 

 -2.263007e-02  2.241671e-02  0 
 2.241671e-02  1.599505e-02  0 
 0  0  0 

 -9.908290e-03  -3.710887e-02  0 
 -3.710887e-02  6.614811e-02  0 
 0  0  0 

 -1.463351e-02  -2.342196e-02  0 
 -2.342196e-02  3.232501e-02  0 
 0  0  0 

 -1.299213e-02  -2.028136e-02  0 
 -2.028136e-02  3.678114e-02  0 
 0  0  0 

 9.615642e-03  -2.058812e-02  0 
 -2.058812e-02  2.575139e-02  0 
 0  0  0 

 -1.785456e-03  -2.467169e-02  0 
 -2.467169e-02  3.896396e-02  0 
 0  0  0 

 1.108673e-03  1.800123e-03  0 
 1.800123e-03  1.284953e-03  0 
 0  0  0 

 -6.811026e-03  -4.047102e-02  0 
 -4.047102e-02  4.425081e-02  0 
 0  0  0 

 -4.868531e-03  -4.680453e-03  0 
 -4.680453e-03  1.704046e-02  0 
 0  0  0 

 4.036032e-03  -1.051816e-02  0 
 -1.051816e-02  1.992235e-03  0 
 0  0  0 

 -5.140113e-03  -2.704350e-02  0 
 -2.704350e-02  2.058332e-02  0 
 0  0  0 

 -3.645883e-03  -1.704092e-02  0 
 -1.704092e-02  4.072706e-02  0 
 0  0  0 

 1.005077e-02  -1.391637e-02  0 
 -1.391637e-02  3.403628e-02  0 
 0  0  0 

 -3.237079e-03  -4.716165e-03  0 
 -4.716165e-03  -8.643994e-04  0 
 0  0  0 

 -8.300705e-03  -3.728111e-02  0 
 -3.728111e-02  5.924189e-02  0 
 0  0  0 

 -5.909639e-03  -3.061905e-02  0 
 -3.061905e-02  3.032605e-02  0 
 0  0  0 

 6.995671e-03  -1.171244e-02  0 
 -1.171244e-02  1.514705e-02  0 
 0  0  0 

 8.257390e-03  -4.339034e-03  0 
 -4.339034e-03  2.112144e-02  0 
 0  0  0 

 -1.479244e-02  -9.547818e-03  0 
 -9.547818e-03  2.300059e-02  0 
 0  0  0 

 1.752078e-02  -5.992542e-03  0 
 -5.992542e-03  5.868110e-02  0 
 0  0  0 

 -1.289749e-02  -3.144955e-02  0 
 -3.144955e-02  6.853082e-02  0 
 0  0  0 

 -3.475772e-04  -1.475908e-02  0 
 -1.475908e-02  1.012311e-01  0 
 0  0  0 

 -1.393960e-02  -7.504290e-03  0 
 -7.504290e-03  2.329396e-02  0 
 0  0  0 

 -1.214309e-02  -2.400411e-02  0 
 -2.400411e-02  3.290579e-02  0 
 0  0  0 

 4.518346e-03  -2.407002e-02  0 
 -2.407002e-02  4.439541e-02  0 
 0  0  0 

 7.447600e-03  -4.329114e-03  0 
 -4.329114e-03  6.427630e-02  0 
 0  0  0 

 -2.988473e-02  -3.628900e-03  0 
 -3.628900e-03  2.739396e-02  0 
 0  0  0 

 -1.553897e-02  -9.615229e-03  0 
 -9.615229e-03  2.514400e-02  0 
 0  0  0 

 -3.687645e-02  -6.924077e-03  0 
 -6.924077e-03  3.078772e-02  0 
 0  0  0 

 -2.401518e-02  -1.507559e-02  0 
 -1.507559e-02  -7.105232e-03  0 
 0  0  0 

 -2.977006e-02  -3.979632e-03  0 
 -3.979632e-03  3.317308e-02  0 
 0  0  0 

 -1.356519e-02  -1.601660e-02  0 
 -1.601660e-02  6.411086e-03  0 
 0  0  0 

 -1.230473e-02  2.006287e-03  0 
 2.006287e-03  8.768187e-03  0 
 0  0  0 

 -2.553973e-02  4.422159e-04  0 
 4.422159e-04  2.412278e-02  0 
 0  0  0 

 -2.340269e-02  -8.411947e-02  0 
 -8.411947e-02  6.568814e-03  0 
 0  0  0 

 -3.972303e-02  -1.100364e-01  0 
 -1.100364e-01  1.001630e-02  0 
 0  0  0 

 -1.503727e-02  -8.427774e-02  0 
 -8.427774e-02  9.866902e-02  0 
 0  0  0 

 2.775849e-02  -1.094423e-01  0 
 -1.094423e-01  1.785321e-02  0 
 0  0  0 

 -5.737567e-02  -8.241877e-02  0 
 -8.241877e-02  8.725659e-02  0 
 0  0  0 

 1.910288e-03  -6.408647e-02  0 
 -6.408647e-02  8.888326e-02  0 
 0  0  0 

