# vtk DataFile Version 3.1
this is an vtk file created by FEMAC
ASCII
DATASET UNSTRUCTURED_GRID
POINTS 32 FLOAT
1.000000 1.000000 0.000000
1.000000 2.000000 0.000000
2.000000 2.000000 0.000000
1.000000 0.750000 0.000000
1.000000 1.250000 0.000000
1.000000 1.500000 0.000000
1.000000 1.750000 0.000000
1.250000 1.000000 0.000000
1.500000 1.000000 0.000000
1.750000 1.000000 0.000000
1.500000 2.000000 0.000000
1.750000 2.000000 0.000000
2.000000 1.500000 0.000000
2.000000 1.750000 0.000000
1.638134 0.825570 0.000000
1.371728 0.825957 0.000000
1.167285 0.847252 0.000000
1.500000 1.500000 0.000000
1.805000 1.745000 0.000000
1.745000 1.195000 0.000000
1.255000 1.805000 0.000000
1.195000 1.255000 0.000000
1.799000 1.384000 0.000000
1.616000 1.799000 0.000000
1.384000 1.201000 0.000000
1.201000 1.616000 0.000000
1.325714 1.438857 0.000000
1.433602 1.681622 0.000000
1.555888 1.333051 0.000000
1.672784 1.563239 0.000000
1.745000 2.195000 0.000000
2.153954 1.850472 0.000000
CELLS 43 172 
3 8 15 14
3 7 15  8
3 14  9  8
3 3 16  0
3 16  7  0
3 16 15  7
3 18 12 13
3 19  8  9
3 21  5  4
3 24  7  8
3 25  6  5
3 23 11 10
3 22 28 19
3 23 29 18
3 24 26 21
3 25 27 20
3 24 21  7
3 23 18 11
3 25 20  6
3 26  5 21
3 25  5 26
3 17 27 26
3 25 26 27
3 28  8 19
3 24  8 28
3 17 26 28
3 24 28 26
3 27 10 20
3 23 10 27
3 17 29 27
3 23 27 29
3 29 12 18
3 22 12 29
3 17 28 29
3 22 29 28
3 0 21  4
3 0  7 21
3 18  2 11
3 13  2 18
3 20  1  6
3 30 10 11
3 2 30 11
3 13 31  2
CELL_TYPES 43
5 5 5 5 5 5 5 5 5 5 5 5 5 5 5 5 5 5 5 5 5 5 5 5 5 5 5 5 5 5 5 5 5 5 5 5 5 5 5 5 5 5 5 
POINT_DATA 32
VECTORS displacement_ITER1 FLOAT
 -4.944582e-02  1.021926e-02  0 
 -2.292790e-02  1.027481e-02  0 
 -2.300420e-02  -1.634284e-02  0 
 -4.225157e-03  4.412833e-03  0 
 -4.285695e-02  1.021091e-02  0 
 -3.624597e-02  1.021991e-02  0 
 -2.960648e-02  1.024431e-02  0 
 -4.946975e-02  3.588760e-03  0 
 -4.950227e-02  -3.057956e-03  0 
 -4.954192e-02  -9.743228e-03  0 
 -2.300367e-02  -3.074564e-03  0 
 -2.300764e-02  -9.712144e-03  0 
 -3.625720e-02  -1.634956e-02  0 
 -2.963514e-02  -1.635159e-02  0 
 -5.817833e-02  -1.246501e-02  0 
 -4.767176e-02  -1.194116e-04  0 
 -3.714035e-02  1.093333e-02  0 
 -3.624641e-02  -3.059638e-03  0 
 -2.976051e-02  -1.116633e-02  0 
 -4.433719e-02  -9.572712e-03  0 
 -2.815745e-02  3.445763e-03  0 
 -4.273015e-02  5.051196e-03  0 
 -3.932667e-02  -1.100613e-02  0 
 -2.832800e-02  -6.149511e-03  0 
 -4.416419e-02  3.619757e-05  0 
 -3.317497e-02  4.882502e-03  0 
 -3.786603e-02  1.576282e-03  0 
 -3.143424e-02  -1.302763e-03  0 
 -4.066934e-02  -4.539588e-03  0 
 -3.457284e-02  -7.651702e-03  0 
 -4.033444e-02  -1.668475e-02  0 
 -3.367407e-02  -4.861566e-02  0 
VECTORS displacement_ITER2 FLOAT
 -1.414196e-02  -2.092575e-03  0 
 1.505740e-02  -2.046036e-03  0 
 1.498756e-02  -3.138817e-02  0 
 3.104241e-02  -5.857155e-03  0 
 -6.891493e-03  -2.112819e-03  0 
 3.912086e-04  -2.107326e-03  0 
 7.708465e-03  -2.080339e-03  0 
 -1.417635e-02  -9.408589e-03  0 
 -1.421746e-02  -1.673612e-02  0 
 -1.426518e-02  -2.410915e-02  0 
 1.500432e-02  -1.677510e-02  0 
 1.499184e-02  -2.408178e-02  0 
 3.925405e-04  -3.139623e-02  0 
 7.689559e-03  -3.139679e-02  0 
 -2.416299e-02  -2.598454e-02  0 
 -1.346368e-02  -1.287613e-02  0 
 -2.307769e-03  -9.070394e-04  0 
 3.966720e-04  -1.674016e-02  0 
 7.551824e-03  -2.568726e-02  0 
 -8.523810e-03  -2.391866e-02  0 
 9.306794e-03  -9.572338e-03  0 
 -6.749298e-03  -7.794706e-03  0 
 -2.995017e-03  -2.550236e-02  0 
 9.130428e-03  -2.015988e-02  0 
 -8.330746e-03  -1.332301e-02  0 
 3.776861e-03  -7.988136e-03  0 
 -1.389757e-03  -1.162755e-02  0 
 5.698172e-03  -1.480664e-02  0 
 -4.478558e-03  -1.836894e-02  0 
 2.244104e-03  -2.180707e-02  0 
 -1.919934e-03  -3.076455e-02  0 
 3.362402e-03  -6.125915e-02  0 
VECTORS displacement_ITER3 FLOAT
 -1.598625e-02  3.572085e-03  0 
 -8.642797e-04  3.565649e-03  0 
 -9.649819e-04  -1.170646e-02  0 
 -1.088116e-02  3.660237e-02  0 
 -1.226984e-02  3.525177e-03  0 
 -8.510086e-03  3.514215e-03  0 
 -4.706401e-03  3.536107e-03  0 
 -1.604514e-02  -2.638684e-04  0 
 -1.610008e-02  -4.088367e-03  0 
 -1.616411e-02  -7.970303e-03  0 
 -9.290435e-04  -4.126369e-03  0 
 -9.480554e-04  -7.914420e-03  0 
 -8.498491e-03  -1.171844e-02  0 
 -4.726179e-03  -1.171112e-02  0 
 -2.607084e-02  -1.022361e-02  0 
 -1.776143e-02  -5.736735e-04  0 
 -1.177416e-02  8.529475e-03  0 
 -8.494094e-03  -4.088569e-03  0 
 -4.791717e-03  -8.751698e-03  0 
 -1.314175e-02  -7.834460e-03  0 
 -3.875094e-03  -3.757517e-04  0 
 -1.219333e-02  5.890166e-04  0 
 -1.025584e-02  -8.654232e-03  0 
 -3.971870e-03  -5.882172e-03  0 
 -1.302260e-02  -2.292717e-03  0 
 -6.751901e-03  4.571135e-04  0 
 -9.421142e-03  -1.417636e-03  0 
 -5.748040e-03  -3.094273e-03  0 
 -1.102410e-02  -4.930395e-03  0 
 -7.535816e-03  -6.731689e-03  0 
 -1.964813e-02  -1.503831e-02  0 
 -1.089228e-02  -3.565439e-02  0 
VECTORS displacement_ITER4 FLOAT
 -1.894665e-02  -1.134186e-02  0 
 -8.038024e-03  -1.137677e-02  0 
 -8.164642e-03  -2.243957e-02  0 
 -2.612129e-02  2.707128e-02  0 
 -1.629619e-02  -1.139842e-02  0 
 -1.359512e-02  -1.141686e-02  0 
 -1.084074e-02  -1.139948e-02  0 
 -1.902385e-02  -1.414401e-02  0 
 -1.909127e-02  -1.692442e-02  0 
 -1.916928e-02  -1.977323e-02  0 
 -8.121631e-03  -1.695629e-02  0 
 -8.140811e-03  -1.969296e-02  0 
 -1.357945e-02  -2.245102e-02  0 
 -1.086215e-02  -2.243800e-02  0 
 -2.930441e-02  -2.193471e-02  0 
 -2.213278e-02  -1.328753e-02  0 
 -1.808568e-02  -5.828227e-03  0 
 -1.357295e-02  -1.691954e-02  0 
 -1.090662e-02  -2.030199e-02  0 
 -1.695064e-02  -1.964528e-02  0 
 -1.023773e-02  -1.424543e-02  0 
 -1.624016e-02  -1.351150e-02  0 
 -1.484950e-02  -2.023378e-02  0 
 -1.031359e-02  -1.822571e-02  0 
 -1.684746e-02  -1.560573e-02  0 
 -1.232205e-02  -1.363264e-02  0 
 -1.424294e-02  -1.497572e-02  0 
 -1.159067e-02  -1.620781e-02  0 
 -1.540307e-02  -1.752599e-02  0 
 -1.288099e-02  -1.883922e-02  0 
 -2.590172e-02  -2.638601e-02  0 
 -1.728306e-02  -4.424182e-02  0 
VECTORS displacement_ITER5 FLOAT
 -1.903604e-02  3.777557e-03  0 
 6.237040e-05  3.781745e-03  0 
 -9.017692e-05  -1.554713e-02  0 
 2.273801e-02  -1.652085e-02  0 
 -1.437170e-02  3.731626e-03  0 
 -9.631362e-03  3.729972e-03  0 
 -4.816051e-03  3.756971e-03  0 
 -1.913834e-02  -1.063811e-03  0 
 -1.923234e-02  -5.893176e-03  0 
 -1.933348e-02  -1.081183e-02  0 
 -3.764271e-05  -5.918573e-03  0 
 -5.729252e-05  -1.072300e-02  0 
 -9.608939e-03  -1.554050e-02  0 
 -4.834054e-03  -1.552678e-02  0 
 -2.794245e-02  -1.113421e-02  0 
 -2.005791e-02  -1.459048e-03  0 
 -1.112874e-02  5.354025e-03  0 
 -9.606927e-03  -5.882143e-03  0 
 -4.923602e-03  -1.178683e-02  0 
 -1.550126e-02  -1.062518e-02  0 
 -3.759186e-03  -1.195173e-03  0 
 -1.428113e-02  3.445633e-05  0 
 -1.183768e-02  -1.166156e-02  0 
 -3.886495e-03  -8.148785e-03  0 
 -1.533430e-02  -3.609656e-03  0 
 -7.404219e-03  -1.360498e-04  0 
 -1.078063e-02  -2.501223e-03  0 
 -6.129528e-03  -4.627153e-03  0 
 -1.281099e-02  -6.944209e-03  0 
 -8.393312e-03  -9.228719e-03  0 
 -1.090563e-02  -1.668079e-02  0 
 -9.408915e-03  -3.681663e-02  0 
VECTORS displacement_ITER6 FLOAT
 -1.710809e-02  7.997909e-03  0 
 4.970641e-04  8.019770e-03  0 
 3.176592e-04  -9.864798e-03  0 
 2.687686e-02  -1.897464e-02  0 
 -1.283935e-02  7.950592e-03  0 
 -8.474593e-03  7.957062e-03  0 
 -4.024590e-03  7.989952e-03  0 
 -1.723083e-02  3.523024e-03  0 
 -1.734207e-02  -9.361778e-04  0 
 -1.745859e-02  -5.497551e-03  0 
 3.868830e-04  -9.541083e-04  0 
 3.618161e-04  -5.397089e-03  0 
 -8.447781e-03  -9.850410e-03  0 
 -4.045128e-03  -9.833815e-03  0 
 -2.410931e-02  -4.837747e-03  0 
 -1.757312e-02  3.337281e-03  0 
 -9.167738e-03  8.917578e-03  0 
 -8.449674e-03  -9.192554e-04  0 
 -4.128285e-03  -6.384805e-03  0 
 -1.390339e-02  -5.306145e-03  0 
 -3.047453e-03  3.409554e-03  0 
 -1.275847e-02  4.551966e-03  0 
 -1.050892e-02  -6.264248e-03  0 
 -3.169524e-03  -3.020264e-03  0 
 -1.373518e-02  1.185730e-03  0 
 -6.418602e-03  4.389080e-03  0 
 -9.533376e-03  2.209024e-03  0 
 -5.239127e-03  2.367629e-04  0 
 -1.140914e-02  -1.897345e-03  0 
 -7.328290e-03  -4.017220e-03  0 
 -7.694616e-03  -1.129529e-02  0 
 -8.212541e-03  -2.749882e-02  0 
VECTORS displacement_ITER7 FLOAT
 -4.459460e-03  3.837248e-03  0 
 5.584918e-03  3.809710e-03  0 
 5.362791e-03  -6.497813e-03  0 
 -7.653392e-03  2.157309e-02  0 
 -2.093593e-03  3.766038e-03  0 
 3.817073e-04  3.759638e-03  0 
 2.943964e-03  3.784073e-03  0 
 -4.602524e-03  1.217640e-03  0 
 -4.725091e-03  -1.363594e-03  0 
 -4.856394e-03  -4.057374e-03  0 
 5.457167e-03  -1.379644e-03  0 
 5.422970e-03  -3.922375e-03  0 
 4.155665e-04  -6.494322e-03  0 
 2.915383e-03  -6.466025e-03  0 
 -1.135014e-02  -2.881957e-03  0 
 -7.878398e-03  2.601653e-03  0 
 -5.248302e-03  6.939719e-03  0 
 4.125369e-04  -1.341712e-03  0 
 2.873364e-03  -4.503574e-03  0 
 -2.751935e-03  -3.889524e-03  0 
 3.505277e-03  1.129516e-03  0 
 -2.045631e-03  1.842020e-03  0 
 -7.696594e-04  -4.433857e-03  0 
 3.425752e-03  -2.569257e-03  0 
 -2.620247e-03  -1.059711e-04  0 
 1.563673e-03  1.705695e-03  0 
 -2.086539e-04  4.756868e-04  0 
 2.248664e-03  -6.907972e-04  0 
 -1.287355e-03  -1.897339e-03  0 
 1.056125e-03  -3.139160e-03  0 
 -2.281900e-03  -8.469131e-03  0 
 -1.923245e-03  -1.661021e-02  0 
VECTORS displacement_ITER8 FLOAT
 -7.436937e-03  1.467634e-03  0 
 -1.528679e-03  1.443776e-03  0 
 -1.763558e-03  -4.748615e-03  0 
 -1.441846e-02  2.054850e-02  0 
 -6.116339e-03  1.394301e-03  0 
 -4.674727e-03  1.390816e-03  0 
 -3.141878e-03  1.416160e-03  0 
 -7.591153e-03  -1.232875e-04  0 
 -7.723132e-03  -1.672417e-03  0 
 -7.864529e-03  -3.344218e-03  0 
 -1.664810e-03  -1.677817e-03  0 
 -1.698254e-03  -3.196024e-03  0 
 -4.638268e-03  -4.739304e-03  0 
 -3.173597e-03  -4.709763e-03  0 
 -1.353351e-02  -2.176721e-03  0 
 -1.077147e-02  1.577879e-03  0 
 -8.995577e-03  4.673056e-03  0 
 -4.642955e-03  -1.647434e-03  0 
 -3.196228e-03  -3.553161e-03  0 
 -6.554660e-03  -3.188156e-03  0 
 -2.806494e-03  -1.868555e-04  0 
 -6.089402e-03  2.806239e-04  0 
 -5.345623e-03  -3.508749e-03  0 
 -2.866110e-03  -2.394565e-03  0 
 -6.442926e-03  -8.880860e-04  0 
 -3.970529e-03  1.667395e-04  0 
 -5.011893e-03  -5.472857e-04  0 
 -3.555422e-03  -1.270732e-03  0 
 -5.654584e-03  -1.971861e-03  0 
 -4.260130e-03  -2.734267e-03  0 
 -6.807384e-03  -7.361126e-03  0 
 -7.517203e-03  -1.215561e-02  0 
VECTORS displacement_ITER9 FLOAT
 -5.242145e-03  7.367926e-03  0 
 5.152578e-03  7.364276e-03  0 
 4.901720e-03  -3.351630e-03  0 
 1.534085e-02  -3.351229e-03  0 
 -2.819939e-03  7.297333e-03  0 
 -2.595504e-04  7.302211e-03  0 
 2.404388e-03  7.332268e-03  0 
 -5.407434e-03  4.661722e-03  0 
 -5.553280e-03  1.991739e-03  0 
 -5.707968e-03  -8.142945e-04  0 
 5.006983e-03  1.982682e-03  0 
 4.972624e-03  -6.647271e-04  0 
 -2.116022e-04  -3.333220e-03  0 
 2.374667e-03  -3.303379e-03  0 
 -1.016381e-02  1.733746e-03  0 
 -7.004180e-03  5.337610e-03  0 
 -2.276571e-03  8.507343e-03  0 
 -2.236489e-04  2.015080e-03  0 
 2.327386e-03  -1.271436e-03  0 
 -3.511617e-03  -6.260720e-04  0 
 2.986780e-03  4.576121e-03  0 
 -2.772137e-03  5.317315e-03  0 
 -1.444448e-03  -1.194109e-03  0 
 2.899970e-03  7.407736e-04  0 
 -3.367618e-03  3.302341e-03  0 
 9.685718e-04  5.173731e-03  0 
 -8.696166e-04  3.901412e-03  0 
 1.681795e-03  2.687687e-03  0 
 -1.986590e-03  1.443426e-03  0 
 4.463552e-04  1.464746e-04  0 
 3.603217e-03  -3.871918e-03  0 
 -1.092288e-04  -9.642382e-03  0 
VECTORS displacement_ITER10 FLOAT
 -9.096773e-03  2.704707e-03  0 
 -3.438198e-03  2.705618e-03  0 
 -3.705783e-03  -3.292891e-03  0 
 1.087881e-02  -9.605821e-03  0 
 -7.872139e-03  2.631361e-03  0 
 -6.497220e-03  2.639326e-03  0 
 -5.010060e-03  2.671590e-03  0 
 -9.273271e-03  1.177989e-03  0 
 -9.428674e-03  -3.087848e-04  0 
 -9.592112e-03  -1.938766e-03  0 
 -3.583990e-03  -3.244854e-04  0 
 -3.626038e-03  -1.786854e-03  0 
 -6.438328e-03  -3.275654e-03  0 
 -5.038978e-03  -3.242125e-03  0 
 -1.170397e-02  1.314333e-03  0 
 -9.800148e-03  2.305387e-03  0 
 -5.960173e-03  3.946794e-03  0 
 -6.457239e-03  -2.854471e-04  0 
 -5.061960e-03  -2.138078e-03  0 
 -8.310066e-03  -1.768132e-03  0 
 -4.686101e-03  1.117319e-03  0 
 -7.848178e-03  1.579722e-03  0 
 -7.127090e-03  -2.084289e-03  0 
 -4.744030e-03  -1.019384e-03  0 
 -8.189537e-03  4.581092e-04  0 
 -5.815262e-03  1.460595e-03  0 
 -6.816009e-03  7.802119e-04  0 
 -5.409592e-03  7.034464e-05  0 
 -7.432761e-03  -5.898953e-04  0 
 -6.083409e-03  -1.342321e-03  0 
 -5.237150e-03  -4.181103e-03  0 
 -7.170937e-03  -5.217327e-03  0 
VECTORS displacement_ITER11 FLOAT
 -4.699295e-03  1.234482e-03  0 
 -3.794617e-03  1.216588e-03  0 
 -4.073359e-03  -2.686127e-05  0 
 -3.432674e-03  6.584817e-03  0 
 -4.668883e-03  1.150598e-03  0 
 -4.482160e-03  1.154247e-03  0 
 -4.180159e-03  1.184357e-03  0 
 -4.883892e-03  8.818793e-04  0 
 -5.043971e-03  5.793707e-04  0 
 -5.213354e-03  1.308197e-04  0 
 -3.940377e-03  5.595058e-04  0 
 -3.987384e-03  2.900751e-04  0 
 -4.415783e-03  -1.323875e-05  0 
 -4.208906e-03  2.402960e-05  0 
 -6.062844e-03  3.602987e-03  0 
 -5.790674e-03  2.641475e-03  0 
 -4.619904e-03  3.381694e-03  0 
 -4.438265e-03  6.039512e-04  0 
 -4.207080e-03  1.965838e-04  0 
 -4.849366e-03  2.826107e-04  0 
 -4.116705e-03  8.402101e-04  0 
 -4.666438e-03  1.026887e-03  0 
 -4.556044e-03  2.229889e-04  0 
 -4.145264e-03  4.163553e-04  0 
 -4.753474e-03  7.998131e-04  0 
 -4.349286e-03  9.288457e-04  0 
 -4.507385e-03  8.444346e-04  0 
 -4.253576e-03  6.419594e-04  0 
 -4.622392e-03  5.662306e-04  0 
 -4.363427e-03  3.646516e-04  0 
 -6.408783e-03  -1.259680e-03  0 
 -6.055550e-03  1.687400e-03  0 
VECTORS displacement_ITER12 FLOAT
 -8.805808e-04  1.921277e-03  0 
 7.138513e-04  1.895362e-03  0 
 4.270240e-04  -4.659634e-05  0 
 -9.680421e-03  1.523607e-02  0 
 -6.840626e-04  1.830562e-03  0 
 -3.259564e-04  1.833256e-03  0 
 1.516298e-04  1.864019e-03  0 
 -1.071958e-03  1.387443e-03  0 
 -1.236707e-03  9.105437e-04  0 
 -1.411899e-03  2.846760e-04  0 
 5.633916e-04  8.919860e-04  0 
 5.159867e-04  4.479162e-04  0 
 -2.547941e-04  -2.899011e-05  0 
 1.226638e-04  8.148277e-06  0 
 -1.736171e-03  4.165633e-03  0 
 -2.488855e-03  2.897502e-03  0 
 -2.754688e-03  3.719793e-03  0 
 -2.797955e-04  9.367126e-04  0 
 1.203539e-04  3.147862e-04  0 
 -9.069603e-04  4.446437e-04  0 
 2.537275e-04  1.340526e-03  0 
 -6.771912e-04  1.574467e-03  0 
 -4.772666e-04  3.473097e-04  0 
 2.197344e-04  6.670598e-04  0 
 -8.032780e-04  1.214901e-03  0 
 -1.116129e-04  1.468130e-03  0 
 -3.916886e-04  1.299784e-03  0 
 3.106696e-05  1.019177e-03  0 
 -5.805887e-04  8.614035e-04  0 
 -1.604670e-04  5.756000e-04  0 
 -8.349854e-04  -6.310896e-04  0 
 -6.791372e-04  2.456410e-03  0 
VECTORS displacement_ITER13 FLOAT
 -3.335076e-03  1.147773e-03  0 
 -6.024629e-04  1.128587e-03  0 
 -8.904281e-04  -1.976306e-03  0 
 3.681651e-03  -3.233643e-03  0 
 -2.863348e-03  1.059996e-03  0 
 -2.224494e-03  1.068380e-03  0 
 -1.456760e-03  1.101910e-03  0 
 -3.532981e-03  3.315458e-04  0 
 -3.704854e-03  -4.293840e-04  0 
 -3.886182e-03  -1.342749e-03  0 
 -7.493596e-04  -4.553530e-04  0 
 -7.989042e-04  -1.188398e-03  0 
 -2.145480e-03  -1.950861e-03  0 
 -1.479736e-03  -1.916491e-03  0 
 -2.838473e-03  2.716326e-03  0 
 -3.418974e-03  1.121255e-03  0 
 -2.300256e-03  1.624099e-03  0 
 -2.175855e-03  -4.031776e-04  0 
 -1.489209e-03  -1.385059e-03  0 
 -3.156026e-03  -1.173296e-03  0 
 -1.289216e-03  2.813890e-04  0 
 -2.852868e-03  5.857376e-04  0 
 -2.505559e-03  -1.337270e-03  0 
 -1.327913e-03  -8.136907e-04  0 
 -3.041387e-03  1.060745e-05  0 
 -1.875719e-03  4.725134e-04  0 
 -2.359436e-03  1.621913e-04  0 
 -1.655180e-03  -2.467394e-04  0 
 -2.669695e-03  -5.398602e-04  0 
 -1.981827e-03  -9.663845e-04  0 
 -1.762293e-03  -2.047463e-03  0 
 -1.141298e-03  3.501917e-04  0 
VECTORS displacement_ITER14 FLOAT
 -2.223291e-03  1.576093e-03  0 
 -1.540398e-03  1.546876e-03  0 
 -1.823613e-03  4.852611e-04  0 
 2.961279e-03  -8.090314e-04  0 
 -2.265219e-03  1.486148e-03  0 
 -2.138698e-03  1.494010e-03  0 
 -1.881802e-03  1.525800e-03  0 
 -2.424116e-03  1.267529e-03  0 
 -2.597867e-03  1.016767e-03  0 
 -2.781481e-03  6.126721e-04  0 
 -1.681741e-03  9.898388e-04  0 
 -1.731255e-03  7.659231e-04  0 
 -2.057563e-03  5.146328e-04  0 
 -1.901740e-03  5.474405e-04  0 
 -1.578184e-03  4.153342e-03  0 
 -2.186128e-03  2.104546e-03  0 
 -1.343506e-03  2.243497e-03  0 
 -2.088974e-03  1.043630e-03  0 
 -1.901734e-03  6.815150e-04  0 
 -2.447740e-03  7.739422e-04  0 
 -1.824987e-03  1.226798e-03  0 
 -2.264856e-03  1.411211e-03  0 
 -2.181944e-03  7.196790e-04  0 
 -1.850710e-03  8.681027e-04  0 
 -2.343898e-03  1.221232e-03  0 
 -2.026202e-03  1.308520e-03  0 
 -2.147791e-03  1.254019e-03  0 
 -1.939001e-03  1.063877e-03  0 
 -2.242341e-03  1.021530e-03  0 
 -2.023870e-03  8.321999e-04  0 
 -2.716577e-03  -5.333996e-05  0 
 -1.408861e-03  2.758133e-03  0 
VECTORS displacement_ITER15 FLOAT
 7.576869e-04  3.733297e-04  0 
 2.993914e-04  3.248477e-04  0 
 2.348200e-05  3.991706e-04  0 
 -2.680425e-03  6.135879e-03  0 
 4.295658e-04  2.784244e-04  0 
 2.715200e-04  2.842249e-04  0 
 2.445203e-04  3.126573e-04  0 
 5.528672e-04  3.410905e-04  0 
 3.774141e-04  3.721235e-04  0 
 1.907974e-04  2.487106e-04  0 
 1.641814e-04  3.469595e-04  0 
 1.162089e-04  4.023080e-04  0 
 3.543020e-04  4.350563e-04  0 
 2.283222e-04  4.650687e-04  0 
 7.463420e-04  2.952190e-03  0 
 5.748968e-05  1.043212e-03  0 
 1.638109e-05  1.154982e-03  0 
 3.225576e-04  4.002741e-04  0 
 2.326183e-04  3.804765e-04  0 
 3.070931e-04  4.075303e-04  0 
 2.413289e-04  3.037560e-04  0 
 4.250399e-04  4.250245e-04  0 
 3.602164e-04  4.146174e-04  0 
 2.224149e-04  3.553378e-04  0 
 4.057631e-04  4.471499e-04  0 
 2.535500e-04  3.259401e-04  0 
 3.331495e-04  4.144781e-04  0 
 2.672206e-04  3.448254e-04  0 
 3.576222e-04  4.415736e-04  0 
 3.158334e-04  3.836662e-04  0 
 -2.319216e-04  -5.017166e-04  0 
 1.072356e-03  1.886680e-03  0 
VECTORS displacement_ITER16 FLOAT
 -1.425058e-04  7.456028e-04  0 
 2.055090e-05  7.023525e-04  0 
 -2.529248e-04  1.424580e-04  0 
 1.012225e-03  -1.278338e-03  0 
 -3.190639e-04  6.536857e-04  0 
 -3.227254e-04  6.633608e-04  0 
 -1.923826e-04  6.932396e-04  0 
 -3.497511e-04  5.602401e-04  0 
 -5.265503e-04  4.380740e-04  0 
 -7.139092e-04  1.607238e-04  0 
 -1.119958e-04  4.138153e-04  0 
 -1.600056e-04  3.079645e-04  0 
 -2.391693e-04  1.855461e-04  0 
 -2.063280e-04  2.120583e-04  0 
 -2.315062e-04  2.421131e-03  0 
 -7.258591e-04  9.099288e-04  0 
 -4.541097e-04  6.940886e-04  0 
 -2.720871e-04  4.662892e-04  0 
 -2.066010e-04  2.519223e-04  0 
 -4.773476e-04  3.230574e-04  0 
 -1.599277e-04  5.237403e-04  0 
 -3.216516e-04  6.805949e-04  0 
 -3.071361e-04  2.943087e-04  0 
 -1.827866e-04  3.473717e-04  0 
 -3.747207e-04  5.852453e-04  0 
 -2.679331e-04  5.797811e-04  0 
 -2.999030e-04  5.897553e-04  0 
 -2.127556e-04  4.524573e-04  0 
 -3.417974e-04  4.732076e-04  0 
 -2.390733e-04  3.409229e-04  0 
 -3.473489e-05  -6.203955e-04  0 
 8.120792e-04  4.639021e-04  0 
VECTORS displacement_ITER17 FLOAT
 1.615817e-04  3.876037e-04  0 
 -1.020914e-04  3.508301e-04  0 
 -3.792345e-04  2.120817e-04  0 
 -2.216319e-03  -2.963856e-04  0 
 -1.243533e-04  2.968741e-04  0 
 -2.354945e-04  3.088479e-04  0 
 -2.116073e-04  3.408684e-04  0 
 -4.680965e-05  3.104154e-04  0 
 -2.229996e-04  2.979089e-04  0 
 -4.095138e-04  1.304779e-04  0 
 -2.367655e-04  2.749704e-04  0 
 -2.856677e-04  2.738462e-04  0 
 -1.525679e-04  2.594833e-04  0 
 -2.259578e-04  2.838947e-04  0 
 -1.938994e-04  1.849526e-03  0 
 -7.668454e-04  6.385630e-04  0 
 -1.041555e-03  1.452062e-04  0 
 -1.857689e-04  3.258924e-04  0 
 -2.247980e-04  2.410317e-04  0 
 -2.584376e-04  2.900801e-04  0 
 -2.025599e-04  2.793457e-04  0 
 -1.294976e-04  4.083043e-04  0 
 -1.710238e-04  2.834203e-04  0 
 -2.236750e-04  2.565392e-04  0 
 -1.593537e-04  3.942578e-04  0 
 -2.307417e-04  3.118921e-04  0 
 -1.872331e-04  3.745007e-04  0 
 -2.037947e-04  2.839451e-04  0 
 -1.838283e-04  3.568513e-04  0 
 -1.801009e-04  2.746602e-04  0 
 -2.103343e-04  -5.585560e-04  0 
 5.313532e-04  1.302666e-04  0 
VECTORS displacement_ITER18 FLOAT
 5.174819e-05  -2.586137e-04  0 
 -7.408645e-04  -2.891421e-04  0 
 -1.020398e-03  9.547834e-05  0 
 3.285459e-04  -2.580151e-03  0 
 -3.680906e-04  -3.475598e-04  0 
 -6.123818e-04  -3.337358e-04  0 
 -7.209023e-04  -2.999771e-04  0 
 -1.560238e-04  -1.999356e-04  0 
 -3.315226e-04  -7.792812e-05  0 
 -5.170846e-04  -1.106797e-04  0 
 -8.770764e-04  -1.027287e-04  0 
 -9.265516e-04  2.752612e-05  0 
 -5.296094e-04  1.473357e-04  0 
 -7.347383e-04  1.698791e-04  0 
 -5.482096e-04  1.171337e-03  0 
 -6.963280e-04  2.010483e-04  0 
 -5.484396e-04  -3.124946e-04  0 
 -5.632080e-04  -5.163589e-05  0 
 -7.316458e-04  2.411091e-05  0 
 -4.714549e-04  4.539583e-05  0 
 -7.407522e-04  -2.277796e-04  0 
 -3.763915e-04  -1.319873e-04  0 
 -4.864948e-04  6.593230e-05  0 
 -7.589423e-04  -6.016762e-05  0 
 -3.768926e-04  -4.470393e-05  0 
 -6.695664e-04  -2.237979e-04  0 
 -5.322891e-04  -9.564188e-05  0 
 -6.773851e-04  -1.288766e-04  0 
 -4.722087e-04  9.507762e-06  0 
 -5.911844e-04  -1.109777e-05  0 
 -1.057665e-03  -7.815583e-04  0 
 -3.165824e-04  -6.475922e-04  0 
VECTORS displacement_ITER19 FLOAT
 1.327184e-03  -1.392149e-03  0 
 -7.967667e-04  -1.425744e-03  0 
 -1.079521e-03  2.920749e-04  0 
 -1.777978e-03  2.049153e-03  0 
 5.756081e-04  -1.482598e-03  0 
 -1.815452e-06  -1.470119e-03  0 
 -4.446832e-04  -1.436361e-03  0 
 1.121099e-03  -1.000733e-03  0 
 9.477053e-04  -5.450849e-04  0 
 7.636968e-04  -2.430770e-04  0 
 -9.344912e-04  -5.721893e-04  0 
 -9.847648e-04  -1.077175e-04  0 
 8.045030e-05  3.473220e-04  0 
 -4.588267e-04  3.686796e-04  0 
 1.730293e-04  5.965737e-04  0 
 3.537512e-04  -2.884940e-04  0 
 3.876174e-04  -6.941909e-04  0 
 4.707851e-05  -5.209714e-04  0 
 -4.493892e-04  -3.792310e-05  0 
 5.482304e-04  -9.477486e-05  0 
 -5.375613e-04  -1.024799e-03  0 
 5.610784e-04  -1.007870e-03  0 
 2.790949e-04  -2.678894e-06  0 
 -5.483615e-04  -3.746938e-04  0 
 6.330252e-04  -6.683121e-04  0 
 -2.142287e-04  -1.092187e-03  0 
 1.597731e-04  -7.975646e-04  0 
 -3.097368e-04  -6.870782e-04  0 
 3.615581e-04  -3.849238e-04  0 
 -6.573288e-05  -2.494506e-04  0 
 -1.457504e-03  -7.987725e-04  0 
 -5.575231e-04  -6.496335e-04  0 
VECTORS displacement_ITER20 FLOAT
 5.252154e-04  -9.689789e-04  0 
 -1.219192e-03  -9.983415e-04  0 
 -1.504954e-03  3.380610e-04  0 
 -3.189927e-04  -2.553488e-04  0 
 -1.309709e-04  -1.057956e-03  0 
 -6.147835e-04  -1.044766e-03  0 
 -9.636286e-04  -1.009496e-03  0 
 3.206642e-04  -6.697289e-04  0 
 1.487778e-04  -3.066838e-04  0 
 -3.382114e-05  -9.621218e-05  0 
 -1.359408e-03  -3.336186e-04  0 
 -1.409786e-03  3.552526e-05  0 
 -5.333567e-04  3.978181e-04  0 
 -9.782472e-04  4.174651e-04  0 
 -8.282963e-04  5.751797e-04  0 
 -3.779865e-04  -2.571423e-05  0 
 -7.911902e-05  -4.369733e-04  0 
 -5.667150e-04  -2.836823e-04  0 
 -9.714494e-04  8.452831e-05  0 
 -1.780130e-04  5.266389e-05  0 
 -1.035798e-03  -6.950367e-04  0 
 -1.441013e-04  -6.569795e-04  0 
 -3.779689e-04  1.236442e-04  0 
 -1.049763e-03  -1.805712e-04  0 
 -9.214079e-05  -3.878674e-04  0 
 -7.840740e-04  -7.421432e-04  0 
 -4.768393e-04  -4.950411e-04  0 
 -8.550859e-04  -4.246390e-04  0 
 -3.145323e-04  -1.684482e-04  0 
 -6.560938e-04  -7.676403e-05  0 
 -1.560486e-03  -4.466502e-04  0 
 -1.196657e-03  -8.989606e-04  0 
VECTORS displacement_ITER21 FLOAT
 1.696055e-04  -3.512294e-04  0 
 -9.193930e-04  -3.776215e-04  0 
 -1.209822e-03  3.036026e-04  0 
 -4.826147e-04  -6.574874e-04  0 
 -3.220967e-04  -4.393489e-04  0 
 -6.435571e-04  -4.261314e-04  0 
 -8.293524e-04  -3.895041e-04  0 
 -3.344485e-05  -2.137967e-04  0 
 -2.035745e-04  -1.216597e-05  0 
 -3.844383e-04  3.842176e-05  0 
 -1.062726e-03  -3.947953e-05  0 
 -1.113761e-03  1.664156e-04  0 
 -5.623789e-04  3.674265e-04  0 
 -8.447740e-04  3.855201e-04  0 
 -1.399802e-03  7.328866e-04  0 
 -8.569522e-04  3.481135e-04  0 
 -5.430310e-04  -2.537842e-05  0 
 -5.960147e-04  9.549290e-06  0 
 -8.418742e-04  1.792184e-04  0 
 -4.037716e-04  1.888650e-04  0 
 -8.658432e-04  -2.421471e-04  0 
 -3.322556e-04  -1.659697e-04  0 
 -4.821916e-04  2.238772e-04  0 
 -8.846619e-04  3.739429e-05  0 
 -3.152241e-04  -1.946941e-05  0 
 -7.376663e-04  -2.541767e-04  0 
 -5.457988e-04  -8.862177e-05  0 
 -7.661246e-04  -8.819282e-05  0 
 -4.520446e-04  8.871040e-05  0 
 -6.445058e-04  1.042973e-04  0 
 -1.002356e-03  -3.521640e-05  0 
 -1.128339e-03  -8.448318e-04  0 
VECTORS displacement_ITER22 FLOAT
 6.588509e-05  -2.170477e-04  0 
 -7.000347e-04  -2.410521e-04  0 
 -9.958164e-04  1.176303e-04  0 
 -6.549612e-04  1.601096e-04  0 
 -3.442890e-04  -3.041267e-04  0 
 -5.865552e-04  -2.910286e-04  0 
 -6.923203e-04  -2.533504e-04  0 
 -1.349379e-04  -1.575858e-04  0 
 -3.027577e-04  -3.391668e-05  0 
 -4.810371e-04  -5.857352e-05  0 
 -8.463148e-04  -6.301162e-05  0 
 -8.984698e-04  6.320767e-05  0 
 -5.050969e-04  1.870665e-04  0 
 -7.082641e-04  2.030764e-04  0 
 -1.491005e-03  7.284032e-04  0 
 -9.153974e-04  3.878414e-04  0 
 -5.654352e-04  1.455929e-04  0 
 -5.394721e-04  -1.430032e-05  0 
 -7.078946e-04  5.809952e-05  0 
 -4.415431e-04  9.076939e-05  0 
 -7.114268e-04  -1.881800e-04  0 
 -3.530852e-04  -9.363981e-05  0 
 -4.616615e-04  1.072657e-04  0 
 -7.331153e-04  -2.354583e-05  0 
 -3.526899e-04  -6.550714e-06  0 
 -6.439807e-04  -1.830260e-04  0 
 -5.086342e-04  -5.742843e-05  0 
 -6.517579e-04  -9.119153e-05  0 
 -4.480305e-04  4.776420e-05  0 
 -5.680523e-04  2.582309e-05  0 
 -7.337173e-04  2.223282e-04  0 
 -1.035482e-03  -7.414437e-04  0 
VECTORS displacement_ITER23 FLOAT
 -4.717248e-04  -4.005052e-04  0 
 -7.608066e-04  -4.181407e-04  0 
 -1.063033e-03  -5.379094e-04  0 
 -3.689185e-04  1.128528e-04  0 
 -7.627957e-04  -4.855154e-04  0 
 -8.872895e-04  -4.710851e-04  0 
 -8.743861e-04  -4.317488e-04  0 
 -6.702523e-04  -4.560568e-04  0 
 -8.358043e-04  -4.479258e-04  0 
 -1.011122e-03  -5.845248e-04  0 
 -9.112626e-04  -4.775895e-04  0 
 -9.644845e-04  -4.703253e-04  0 
 -8.063571e-04  -4.614797e-04  0 
 -8.920820e-04  -4.484726e-04  0 
 -1.614817e-03  3.280358e-04  0 
 -1.138697e-03  -2.238497e-05  0 
 -7.226660e-04  -8.945088e-05  0 
 -8.415798e-04  -4.300841e-04  0 
 -8.951275e-04  -5.018010e-04  0 
 -8.842872e-04  -4.360881e-04  0 
 -8.682380e-04  -4.879269e-04  0 
 -7.697584e-04  -3.674983e-04  0 
 -8.175773e-04  -4.465987e-04  0 
 -8.942694e-04  -4.938487e-04  0 
 -7.940671e-04  -3.683395e-04  0 
 -8.905121e-04  -4.577677e-04  0 
 -8.393244e-04  -3.918319e-04  0 
 -8.679787e-04  -4.756667e-04  0 
 -8.281976e-04  -3.936377e-04  0 
 -8.406882e-04  -4.709513e-04  0 
 -6.867342e-04  -2.456925e-05  0 
 -1.088431e-03  -1.148422e-03  0 
VECTORS displacement_ITER24 FLOAT
 -9.737235e-04  -3.220914e-04  0 
 -7.623481e-04  -3.325817e-04  0 
 -1.071966e-03  -9.544718e-04  0 
 -1.250866e-04  -4.860819e-04  0 
 -1.140726e-03  -4.057525e-04  0 
 -1.141564e-03  -3.898617e-04  0 
 -1.003859e-03  -3.484038e-04  0 
 -1.170911e-03  -4.994585e-04  0 
 -1.334923e-03  -6.131204e-04  0 
 -1.507969e-03  -8.684847e-04  0 
 -9.184062e-04  -6.419996e-04  0 
 -9.724559e-04  -7.597105e-04  0 
 -1.061670e-03  -8.723453e-04  0 
 -1.023765e-03  -8.616147e-04  0 
 -1.792447e-03  1.046875e-04  0 
 -1.424174e-03  -2.176812e-04  0 
 -9.950941e-04  -1.953508e-04  0 
 -1.097213e-03  -5.960801e-04  0 
 -1.030177e-03  -8.186795e-04  0 
 -1.288555e-03  -7.200693e-04  0 
 -9.714690e-04  -5.320794e-04  0 
 -1.145622e-03  -3.843585e-04  0 
 -1.130221e-03  -7.582245e-04  0 
 -1.002083e-03  -7.167622e-04  0 
 -1.196171e-03  -4.778383e-04  0 
 -1.087873e-03  -4.757870e-04  0 
 -1.124906e-03  -4.723155e-04  0 
 -1.033476e-03  -6.086972e-04  0 
 -1.165987e-03  -5.868486e-04  0 
 -1.065433e-03  -7.219053e-04  0 
 -5.203430e-04  -1.653539e-04  0 
 -1.060005e-03  -1.356204e-03  0 
VECTORS displacement_ITER25 FLOAT
 -1.088281e-03  -1.442773e-04  0 
 -5.039155e-04  -1.502626e-04  0 
 -8.240174e-04  -1.143897e-03  0 
 -1.555266e-04  -7.425041e-04  0 
 -1.164014e-03  -2.285566e-04  0 
 -1.073675e-03  -2.123331e-04  0 
 -8.428643e-04  -1.684256e-04  0 
 -1.284238e-03  -4.126652e-04  0 
 -1.446389e-03  -6.161356e-04  0 
 -1.616768e-03  -9.580959e-04  0 
 -6.675709e-04  -6.458308e-04  0 
 -7.230240e-04  -8.551620e-04  0 
 -9.935083e-04  -1.056360e-03  0 
 -8.648924e-04  -1.047722e-03  0 
 -1.853692e-03  4.541626e-05  0 
 -1.532977e-03  -2.491449e-04  0 
 -1.126038e-03  -1.807810e-04  0 
 -1.029553e-03  -6.009318e-04  0 
 -8.739258e-04  -9.345956e-04  0 
 -1.329785e-03  -8.106433e-04  0 
 -7.910306e-04  -4.479453e-04  0 
 -1.166850e-03  -2.784922e-04  0 
 -1.104200e-03  -8.696106e-04  0 
 -8.256425e-04  -7.638186e-04  0 
 -1.236500e-03  -4.403614e-04  0 
 -9.776778e-04  -3.718037e-04  0 
 -1.079544e-03  -4.138903e-04  0 
 -8.993203e-04  -5.897953e-04  0 
 -1.158756e-03  -6.112996e-04  0 
 -9.749462e-04  -7.893126e-04  0 
 -6.745509e-05  -1.082072e-04  0 
 -8.571986e-04  -9.611831e-04  0 
VECTORS displacement_ITER26 FLOAT
 -8.315111e-04  -1.023742e-04  0 
 -3.536394e-04  -1.066093e-04  0 
 -6.833247e-04  -9.920207e-04  0 
 -5.007397e-04  -1.969939e-04  0 
 -9.358484e-04  -1.884921e-04  0 
 -8.743500e-04  -1.727303e-04  0 
 -6.703717e-04  -1.264518e-04  0 
 -1.026563e-03  -3.434239e-04  0 
 -1.187000e-03  -5.177832e-04  0 
 -1.355111e-03  -8.275627e-04  0 
 -5.242033e-04  -5.485884e-04  0 
 -5.810337e-04  -7.297978e-04  0 
 -7.933265e-04  -9.001333e-04  0 
 -6.935613e-04  -8.932347e-04  0 
 -1.479557e-03  2.433545e-05  0 
 -1.236186e-03  -2.317510e-04  0 
 -9.448664e-04  -1.626836e-04  0 
 -8.298119e-04  -5.042117e-04  0 
 -7.026859e-04  -8.031676e-04  0 
 -1.093274e-03  -6.829500e-04  0 
 -6.248994e-04  -3.799505e-04  0 
 -9.387044e-04  -2.164031e-04  0 
 -8.906512e-04  -7.367569e-04  0 
 -6.602815e-04  -6.541419e-04  0 