# vtk DataFile Version 3.1
this is an vtk file created by FEMAC
ASCII
DATASET UNSTRUCTURED_GRID
POINTS 32 FLOAT
1.000000 1.000000 0.000000
1.000000 2.000000 0.000000
2.000000 2.000000 0.000000
1.000000 0.750000 0.000000
1.000000 1.250000 0.000000
1.000000 1.500000 0.000000
1.000000 1.750000 0.000000
1.250000 1.000000 0.000000
1.500000 1.000000 0.000000
1.750000 1.000000 0.000000
1.500000 2.000000 0.000000
1.750000 2.000000 0.000000
2.000000 1.500000 0.000000
2.000000 1.750000 0.000000
1.638134 0.825570 0.000000
1.371728 0.825957 0.000000
1.167285 0.847252 0.000000
1.500000 1.500000 0.000000
1.805000 1.745000 0.000000
1.745000 1.195000 0.000000
1.255000 1.805000 0.000000
1.195000 1.255000 0.000000
1.799000 1.384000 0.000000
1.616000 1.799000 0.000000
1.384000 1.201000 0.000000
1.201000 1.616000 0.000000
1.325714 1.438857 0.000000
1.433602 1.681622 0.000000
1.555888 1.333051 0.000000
1.672784 1.563239 0.000000
1.745000 2.195000 0.000000
2.153954 1.850472 0.000000
CELLS 43 172 
3 8 15 14
3 7 15  8
3 14  9  8
3 3 16  0
3 16  7  0
3 16 15  7
3 18 12 13
3 19  8  9
3 21  5  4
3 24  7  8
3 25  6  5
3 23 11 10
3 22 28 19
3 23 29 18
3 24 26 21
3 25 27 20
3 24 21  7
3 23 18 11
3 25 20  6
3 26  5 21
3 25  5 26
3 17 27 26
3 25 26 27
3 28  8 19
3 24  8 28
3 17 26 28
3 24 28 26
3 27 10 20
3 23 10 27
3 17 29 27
3 23 27 29
3 29 12 18
3 22 12 29
3 17 28 29
3 22 29 28
3 0 21  4
3 0  7 21
3 18  2 11
3 13  2 18
3 20  1  6
3 30 10 11
3 2 30 11
3 13 31  2
CELL_TYPES 43
5 5 5 5 5 5 5 5 5 5 5 5 5 5 5 5 5 5 5 5 5 5 5 5 5 5 5 5 5 5 5 5 5 5 5 5 5 5 5 5 5 5 5 
POINT_DATA 32
VECTORS displacement_ITER1 FLOAT
 -4.944582e-02  1.021926e-02  0 
 -2.292790e-02  1.027481e-02  0 
 -2.300420e-02  -1.634284e-02  0 
 -4.225157e-03  4.412833e-03  0 
 -4.285695e-02  1.021091e-02  0 
 -3.624597e-02  1.021991e-02  0 
 -2.960648e-02  1.024431e-02  0 
 -4.946975e-02  3.588760e-03  0 
 -4.950227e-02  -3.057956e-03  0 
 -4.954192e-02  -9.743228e-03  0 
 -2.300367e-02  -3.074564e-03  0 
 -2.300764e-02  -9.712144e-03  0 
 -3.625720e-02  -1.634956e-02  0 
 -2.963514e-02  -1.635159e-02  0 
 -5.817833e-02  -1.246501e-02  0 
 -4.767176e-02  -1.194116e-04  0 
 -3.714035e-02  1.093333e-02  0 
 -3.624641e-02  -3.059638e-03  0 
 -2.976051e-02  -1.116633e-02  0 
 -4.433719e-02  -9.572712e-03  0 
 -2.815745e-02  3.445763e-03  0 
 -4.273015e-02  5.051196e-03  0 
 -3.932667e-02  -1.100613e-02  0 
 -2.832800e-02  -6.149511e-03  0 
 -4.416419e-02  3.619757e-05  0 
 -3.317497e-02  4.882502e-03  0 
 -3.786603e-02  1.576282e-03  0 
 -3.143424e-02  -1.302763e-03  0 
 -4.066934e-02  -4.539588e-03  0 
 -3.457284e-02  -7.651702e-03  0 
 -4.033444e-02  -1.668475e-02  0 
 -3.367407e-02  -4.861566e-02  0 
VECTORS displacement_ITER2 FLOAT
 -4.024924e-02  2.323121e-03  0 
 -3.429628e-04  2.408919e-03  0 
 -4.389472e-04  -3.764534e-02  0 
 3.476397e-02  -3.359386e-02  0 
 -3.033009e-02  2.328304e-03  0 
 -2.036885e-02  2.345757e-03  0 
 -1.036464e-02  2.372839e-03  0 
 -4.030666e-02  -7.653548e-03  0 
 -4.039138e-02  -1.766929e-02  0 
 -4.053021e-02  -2.785428e-02  0 
 -3.821260e-04  -1.770133e-02  0 
 -4.135626e-04  -2.767263e-02  0 
 -2.035770e-02  -3.769706e-02  0 
 -1.038716e-02  -3.766639e-02  0 
 -3.956164e-02  -1.544505e-02  0 
 -3.507505e-02  -1.000296e-02  0 
 -2.274649e-02  8.437792e-04  0 
 -2.035596e-02  -1.766565e-02  0 
 -1.057161e-02  -2.988504e-02  0 
 -3.258724e-02  -2.750697e-02  0 
 -8.172228e-03  -7.867252e-03  0 
 -3.014457e-02  -5.433686e-03  0 
 -2.498394e-02  -2.966030e-02  0 
 -8.411679e-03  -2.233584e-02  0 
 -3.231116e-02  -1.298640e-02  0 
 -1.573513e-02  -5.696997e-03  0 
 -2.280459e-02  -1.067359e-02  0 
 -1.310275e-02  -1.502193e-02  0 
 -2.702755e-02  -1.989185e-02  0 
 -1.782226e-02  -2.459865e-02  0 
 -1.326189e-02  -2.926532e-02  0 
 -1.243932e-02  -5.027302e-02  0 
VECTORS displacement_ITER3 FLOAT
 -1.754564e-02  3.505611e-03  0 
 4.894879e-04  3.506581e-03  0 
 3.405667e-04  -1.470472e-02  0 
 1.173439e-03  1.813411e-02  0 
 -1.313377e-02  3.472890e-03  0 
 -8.649266e-03  3.467636e-03  0 
 -4.104013e-03  3.486238e-03  0 
 -1.765602e-02  -1.063515e-03  0 
 -1.778043e-02  -5.641940e-03  0 
 -1.797449e-02  -1.043924e-02  0 
 3.999697e-04  -5.622943e-03  0 
 3.803529e-04  -1.015787e-02  0 
 -8.632649e-03  -1.472896e-02  0 
 -4.126679e-03  -1.469417e-02  0 
 -1.668834e-02  2.129104e-05  0 
 -1.568184e-02  3.644529e-04  0 
 -1.075842e-02  7.248175e-03  0 
 -8.622651e-03  -5.613359e-03  0 
 -4.208225e-03  -1.117298e-02  0 
 -1.422895e-02  -1.014063e-02  0 
 -3.103695e-03  -1.188337e-03  0 
 -1.305201e-02  -1.547901e-05  0 
 -1.072575e-02  -1.108909e-02  0 
 -3.227629e-03  -7.738986e-03  0 
 -1.405358e-02  -3.457220e-03  0 
 -6.543845e-03  -1.846740e-04  0 
 -9.733087e-03  -2.416405e-03  0 
 -5.337083e-03  -4.424518e-03  0 
 -1.165104e-02  -6.621035e-03  0 
 -7.474782e-03  -8.776367e-03  0 
 -1.327338e-03  -1.189374e-02  0 
 -3.897704e-03  -1.613272e-02  0 
VECTORS displacement_ITER4 FLOAT
 -8.158484e-03  3.315314e-03  0 
 -1.238209e-03  3.291042e-03  0 
 -1.425137e-03  -3.894126e-03  0 
 4.290891e-03  1.278493e-03  0 
 -6.575290e-03  3.269287e-03  0 
 -4.867611e-03  3.270654e-03  0 
 -3.077375e-03  3.280446e-03  0 
 -8.314946e-03  1.489347e-03  0 
 -8.466862e-03  -3.203638e-04  0 
 -8.682959e-03  -2.361658e-03  0 
 -1.316830e-03  -2.937013e-04  0 
 -1.357407e-03  -2.075342e-03  0 
 -4.832328e-03  -3.881992e-03  0 
 -3.104178e-03  -3.857968e-03  0 
 -6.463730e-03  4.839130e-03  0 
 -7.220624e-03  2.867722e-03  0 
 -5.138083e-03  4.896541e-03  0 
 -4.836024e-03  -2.844932e-04  0 
 -3.132705e-03  -2.498281e-03  0 
 -7.082472e-03  -2.099526e-03  0 
 -2.679083e-03  1.427281e-03  0 
 -6.547895e-03  1.955935e-03  0 
 -5.656625e-03  -2.452771e-03  0 
 -2.741648e-03  -1.142719e-03  0 
 -6.957721e-03  5.969366e-04  0 
 -4.038713e-03  1.837390e-03  0 
 -5.269434e-03  9.931442e-04  0 
 -3.555595e-03  1.660467e-04  0 
 -6.021404e-03  -6.687313e-04  0 
 -4.387113e-03  -1.547939e-03  0 
 -1.521120e-03  -5.912845e-04  0 
 -2.731010e-03  -8.228756e-04  0 
VECTORS displacement_ITER5 FLOAT
 -1.307798e-03  1.228175e-03  0 
 -3.369906e-04  1.275520e-03  0 
 -6.376951e-04  9.615047e-06  0 
 -6.504057e-04  -2.536026e-03  0 
 -1.260428e-03  1.175758e-03  0 
 -1.066128e-03  1.191911e-03  0 
 -7.506635e-04  1.235583e-03  0 
 -1.484971e-03  9.014645e-04  0 
 -1.645359e-03  6.114344e-04  0 
 -1.903412e-03  3.150560e-05  0 
 -5.007568e-04  6.150348e-04  0 
 -5.548893e-04  3.325666e-04  0 
 -1.011374e-03  3.517850e-05  0 
 -7.874332e-04  5.786978e-05  0 
 -3.150325e-03  6.851385e-04  0 
 -2.189681e-03  1.333199e-03  0 
 -1.990796e-03  9.148229e-04  0 
 -1.025004e-03  6.319745e-04  0 
 -7.889549e-04  2.368910e-04  0 
 -1.431260e-03  3.178723e-04  0 
 -6.862188e-04  8.685622e-04  0 
 -1.264699e-03  1.049148e-03  0 
 -1.142650e-03  2.603529e-04  0 
 -7.229845e-04  4.566707e-04  0 
 -1.350773e-03  8.272490e-04  0 
 -9.304144e-04  9.616009e-04  0 
 -1.096638e-03  8.705901e-04  0 
 -8.317662e-04  6.741641e-04  0 
 -1.210289e-03  5.925123e-04  0 
 -9.509047e-04  3.991397e-04  0 
 -2.823802e-03  3.972839e-04  0 
 -1.611109e-03  -4.086209e-04  0 
VECTORS displacement_ITER6 FLOAT
 -6.256864e-04  1.769985e-04  0 
 -5.219595e-04  2.006475e-04  0 
 -8.417341e-04  -2.042139e-04  0 
 -4.913526e-04  -4.625095e-04  0 
 -8.078561e-04  1.145336e-04  0 
 -8.358944e-04  1.322675e-04  0 
 -7.357764e-04  1.704343e-04  0 
 -8.112412e-04  5.927045e-05  0 
 -9.776275e-04  -1.606303e-05  0 
 -1.239198e-03  -3.803204e-04  0 
 -6.978138e-04  -1.859579e-05  0 
 -7.532087e-04  -8.919930e-05  0 
 -7.691987e-04  -1.657046e-04  0 
 -7.662374e-04  -1.457423e-04  0 
 -1.800057e-03  3.557260e-04  0 
 -1.015442e-03  6.770623e-04  0 
 -8.595584e-04  2.793510e-04  0 
 -7.890919e-04  1.175916e-06  0 
 -7.653813e-04  -1.376847e-04  0 
 -9.339209e-04  -9.805393e-05  0 
 -7.135102e-04  1.635838e-05  0 
 -8.157019e-04  1.618771e-04  0 
 -8.062261e-04  -1.092155e-04  0 
 -7.464682e-04  -7.875365e-05  0 
 -8.554896e-04  1.022718e-04  0 
 -7.978756e-04  7.085250e-05  0 
 -8.092327e-04  9.259682e-05  0 
 -7.523192e-04  -1.851330e-05  0 
 -8.303450e-04  1.365111e-05  0 
 -7.688548e-04  -8.445616e-05  0 
 -1.316042e-03  -8.836035e-04  0 
 -1.122342e-03  -4.598212e-04  0 
VECTORS displacement_ITER7 FLOAT
 -5.472755e-04  -1.229449e-05  0 
 -4.549677e-04  1.430274e-04  0 
 -9.092344e-04  -2.812198e-04  0 
 -9.464364e-05  3.518691e-05  0 
 -7.625317e-04  -6.242964e-05  0 
 -8.255357e-04  -2.521274e-05  0 
 -7.245389e-04  6.188129e-05  0 
 -7.300398e-04  -8.652244e-05  0 
 -8.877869e-04  -1.223036e-04  0 
 -1.110102e-03  -3.972857e-04  0 
 -7.300493e-04  -1.305491e-04  0 
 -8.018360e-04  -1.803085e-04  0 
 -7.501563e-04  -2.259110e-04  0 
 -7.840091e-04  -2.094291e-04  0 
 -1.290905e-03  -8.391204e-05  0 
 -6.471768e-04  3.707732e-04  0 
 -4.208118e-04  1.679928e-04  0 
 -7.796203e-04  -1.175996e-04  0 
 -7.838693e-04  -2.321234e-04  0 
 -8.785339e-04  -1.655406e-04  0 
 -7.159645e-04  -1.198526e-04  0 
 -7.763274e-04  8.905709e-06  0 
 -7.763109e-04  -1.893509e-04  0 
 -7.669558e-04  -1.906654e-04  0 
 -8.062808e-04  -2.652200e-05  0 
 -8.014867e-04  -6.858689e-05  0 
 -7.969163e-04  -4.044291e-05  0 
 -7.573527e-04  -1.487173e-04  0 
 -8.025635e-04  -9.160118e-05  0 
 -7.635766e-04  -1.893881e-04  0 
 1.720611e-06  -6.055966e-04  0 
 -8.107419e-04  -1.140573e-03  0 
VECTORS displacement_ITER8 FLOAT
 -4.151148e-04  -3.745962e-04  0 
 -2.192559e-04  -2.849550e-04  0 
 -6.373829e-04  -8.670237e-04  0 
 -2.122129e-04  3.090739e-04  0 
 -6.036692e-04  -4.472761e-04  0 
 -6.333232e-04  -4.197336e-04  0 
 -5.022920e-04  -3.433932e-04  0 
 -6.024667e-04  -5.095371e-04  0 
 -7.554173e-04  -5.882676e-04  0 
 -9.178125e-04  -8.005921e-04  0 
 -4.413603e-04  -5.983176e-04  0 
 -5.210139e-04  -7.028785e-04  0 
 -5.513800e-04  -7.895849e-04  0 
 -5.453272e-04  -7.777957e-04  0 
 -1.077068e-03  -5.760655e-04  0 
 -5.916296e-04  -2.095058e-04  0 
 -3.362295e-04  -1.739317e-04  0 
 -5.885482e-04  -5.795693e-04  0 
 -5.492179e-04  -7.660297e-04  0 
 -7.392426e-04  -6.538989e-04  0 
 -4.799043e-04  -5.486058e-04  0 
 -6.118043e-04  -4.055238e-04  0 
 -5.995774e-04  -7.045467e-04  0 
 -5.231955e-04  -6.864172e-04  0 
 -6.519244e-04  -4.740795e-04  0 
 -5.925591e-04  -4.887104e-04  0 
 -6.132562e-04  -4.744008e-04  0 
 -5.388037e-04  -6.025388e-04  0 
 -6.398485e-04  -5.575395e-04  0 
 -5.605633e-04  -6.884069e-04  0 
 -6.381887e-04  -8.360998e-04  0 
 -6.865748e-04  -1.210101e-03  0 
VECTORS displacement_ITER9 FLOAT
 -4.642944e-04  -1.516882e-04  0 
 -1.960792e-04  -1.442709e-04  0 
 -5.471690e-04  -8.100302e-04  0 
 -1.633922e-04  -7.572902e-05  0 
 -6.156789e-04  -2.412489e-04  0 
 -6.096197e-04  -2.282062e-04  0 
 -4.609855e-04  -1.751078e-04  0 
 -6.486193e-04  -3.370704e-04  0 
 -7.966465e-04  -4.538453e-04  0 
 -9.477248e-04  -6.840163e-04  0 
 -3.503474e-04  -4.666703e-04  0 
 -4.302339e-04  -6.058001e-04  0 
 -5.303562e-04  -7.241206e-04  0 
 -4.889386e-04  -7.152669e-04  0 
 -1.207321e-03  -4.680258e-04  0 
 -7.603576e-04  -1.479808e-04  0 
 -4.796995e-04  -1.111747e-04  0 
 -5.661214e-04  -4.442402e-04  0 
 -4.948755e-04  -6.753687e-04  0 
 -7.531597e-04  -5.541185e-04  0 
 -4.274494e-04  -3.817494e-04  0 
 -6.176618e-04  -2.294215e-04  0 
 -5.937930e-04  -6.071677e-04  0 
 -4.619195e-04  -5.690588e-04  0 
 -6.658904e-04  -3.256667e-04  0 
 -5.542072e-04  -3.194273e-04  0 
 -5.951086e-04  -3.184866e-04  0 
 -4.969257e-04  -4.557016e-04  0 
 -6.367205e-04  -4.322953e-04  0 
 -5.326566e-04  -5.750574e-04  0 
 -3.373081e-04  -4.725402e-04  0 
 -6.332976e-04  -1.023670e-03  0 
VECTORS displacement_ITER10 FLOAT
 -4.964778e-04  -7.355829e-05  0 
 -1.965614e-04  -1.335064e-04  0 
 -5.143098e-04  -8.234739e-04  0 
 -1.303133e-04  2.497583e-05  0 
 -6.275336e-04  -1.786021e-04  0 
 -6.021665e-04  -1.781500e-04  0 
 -4.466018e-04  -1.426551e-04  0 
 -6.782963e-04  -2.910831e-04  0 
 -8.231424e-04  -4.288860e-04  0 
 -9.773213e-04  -6.838886e-04  0 
 -3.224993e-04  -4.539889e-04  0 
 -3.982791e-04  -6.012986e-04  0 
 -5.271981e-04  -7.315960e-04  0 
 -4.691568e-04  -7.246673e-04  0 
 -1.133477e-03  -4.331492e-04  0 
 -7.774330e-04  -1.611402e-04  0 
 -4.903309e-04  -5.815108e-05  0 
 -5.581607e-04  -4.231060e-04  0 
 -4.760719e-04  -6.720285e-04  0 
 -7.592462e-04  -5.517079e-04  0 
 -4.073705e-04  -3.426463e-04  0 
 -6.243312e-04  -1.836878e-04  0 
 -5.931932e-04  -6.027835e-04  0 
 -4.400060e-04  -5.551494e-04  0 
 -6.763711e-04  -2.946841e-04  0 
 -5.388181e-04  -2.812979e-04  0 
 -5.885330e-04  -2.864946e-04  0 
 -4.814853e-04  -4.292690e-04  0 
 -6.358243e-04  -4.166966e-04  0 
 -5.237669e-04  -5.630472e-04  0 
 -4.515682e-04  -6.181570e-04  0 
 -6.140208e-04  -1.040937e-03  0 
VECTORS displacement_ITER11 FLOAT
 -4.834930e-04  -8.346381e-05  0 
 -2.021384e-04  -1.482929e-04  0 
 -5.240376e-04  -8.145778e-04  0 
 -1.508179e-04  -2.437529e-05  0 
 -6.194444e-04  -1.885425e-04  0 
 -5.982473e-04  -1.876774e-04  0 
 -4.470401e-04  -1.531683e-04  0 
 -6.651526e-04  -2.963489e-04  0 
 -8.095028e-04  -4.285468e-04  0 
 -9.629445e-04  -6.761963e-04  0 
 -3.337601e-04  -4.630858e-04  0 
 -4.079164e-04  -5.988595e-04  0 
 -5.249644e-04  -7.229269e-04  0 
 -4.714815e-04  -7.158657e-04  0 
 -1.087977e-03  -3.977203e-04  0 
 -7.658611e-04  -1.553202e-04  0 
 -5.034535e-04  -7.254965e-05  0 
 -5.545127e-04  -4.251467e-04  0 
 -4.779993e-04  -6.680291e-04  0 
 -7.495781e-04  -5.455185e-04  0 
 -4.085155e-04  -3.454355e-04  0 
 -6.164548e-04  -1.903440e-04  0 
 -5.844073e-04  -6.021606e-04  0 
 -4.427205e-04  -5.565516e-04  0 
 -6.672820e-04  -2.975281e-04  0 
 -5.368620e-04  -2.869564e-04  0 
 -5.842340e-04  -2.909209e-04  0 
 -4.811090e-04  -4.334205e-04  0 
 -6.292763e-04  -4.163675e-04  0 
 -5.203785e-04  -5.638385e-04  0 
 -4.008879e-04  -6.206959e-04  0 
 -5.908765e-04  -9.991426e-04  0 
VECTORS displacement_ITER12 FLOAT
 -4.843748e-04  -8.185673e-05  0 
 -2.019871e-04  -1.470924e-04  0 
 -5.235386e-04  -8.149145e-04  0 
 -1.377250e-04  -1.690568e-05  0 
 -6.200241e-04  -1.869115e-04  0 
 -5.983676e-04  -1.859265e-04  0 
 -4.467303e-04  -1.515306e-04  0 
 -6.661254e-04  -2.952000e-04  0 
 -8.105144e-04  -4.277856e-04  0 
 -9.640728e-04  -6.759397e-04  0 
 -3.336135e-04  -4.633895e-04  0 
 -4.074752e-04  -5.988754e-04  0 
 -5.249426e-04  -7.230364e-04  0 
 -4.711644e-04  -7.160626e-04  0 
 -1.099123e-03  -3.953320e-04  0 
 -7.592058e-04  -1.581968e-04  0 
 -5.093384e-04  -6.682310e-05  0 
 -5.546969e-04  -4.244354e-04  0 
 -4.777225e-04  -6.680252e-04  0 
 -7.503858e-04  -5.450125e-04  0 
 -4.080682e-04  -3.437720e-04  0 
 -6.170625e-04  -1.890417e-04  0 
 -5.846854e-04  -6.021921e-04  0 
 -4.423738e-04  -5.563361e-04  0 
 -6.680029e-04  -2.965603e-04  0 
 -5.367769e-04  -2.854811e-04  0 
 -5.845742e-04  -2.898133e-04  0 
 -4.809706e-04  -4.326860e-04  0 
 -6.298396e-04  -4.156616e-04  0 
 -5.203406e-04  -5.636360e-04  0 
 -4.075448e-04  -6.291316e-04  0 
 -5.873478e-04  -9.845381e-04  0 
VECTORS displacement_ITER13 FLOAT
 -4.842409e-04  -8.199521e-05  0 
 -2.021723e-04  -1.472731e-04  0 
 -5.236666e-04  -8.147724e-04  0 
 -1.387892e-04  -1.699696e-05  0 
 -6.199772e-04  -1.870429e-04  0 
 -5.984054e-04  -1.860333e-04  0 
 -4.468476e-04  -1.516403e-04  0 
 -6.659619e-04  -2.952453e-04  0 
 -8.102586e-04  -4.276465e-04  0 
 -9.637686e-04  -6.755785e-04  0 
 -3.337015e-04  -4.633607e-04  0 
 -4.075846e-04  -5.988107e-04  0 
 -5.249774e-04  -7.230232e-04  0 
 -4.712435e-04  -7.159735e-04  0 
 -1.098822e-03  -3.973480e-04  0 
 -7.563154e-04  -1.583734e-04  0 
 -5.128519e-04  -6.705319e-05  0 
 -5.547590e-04  -4.243694e-04  0 
 -4.777783e-04  -6.679644e-04  0 
 -7.502556e-04  -5.446703e-04  0 
 -4.081851e-04  -3.437789e-04  0 
 -6.170226e-04  -1.891139e-04  0 
 -5.847537e-04  -6.020687e-04  0 
 -4.424519e-04  -5.562943e-04  0 
 -6.679474e-04  -2.965674e-04  0 
 -5.368531e-04  -2.855057e-04  0 
 -5.846209e-04  -2.898052e-04  0 
 -4.810618e-04  -4.326445e-04  0 
 -6.298878e-04  -4.155681e-04  0 
 -5.204040e-04  -5.635428e-04  0 
 -4.076889e-04  -6.284173e-04  0 
 -5.856148e-04  -9.804338e-04  0 
VECTORS displacement_ITER14 FLOAT
 -4.842454e-04  -8.201073e-05  0 
 -2.021545e-04  -1.473009e-04  0 
 -5.237034e-04  -8.147614e-04  0 
 -1.387983e-04  -1.679441e-05  0 
 -6.199848e-04  -1.870621e-04  0 
 -5.984164e-04  -1.860571e-04  0 
 -4.468616e-04  -1.516642e-04  0 
 -6.659698e-04  -2.952623e-04  0 
 -8.102734e-04  -4.276691e-04  0 
 -9.637716e-04  -6.755828e-04  0 
 -3.337391e-04  -4.633772e-04  0 
 -4.076209e-04  -5.988106e-04  0 
 -5.249693e-04  -7.229911e-04  0 
 -4.712618e-04  -7.159534e-04  0 
 -1.099076e-03  -3.985798e-04  0 
 -7.566627e-04  -1.579835e-04  0 
 -5.128944e-04  -6.742259e-05  0 
 -5.547655e-04  -4.243862e-04  0 
 -4.778004e-04  -6.679630e-04  0 
 -7.502680e-04  -5.447029e-04  0 
 -4.082022e-04  -3.438024e-04  0 
 -6.170290e-04  -1.891304e-04  0 
 -5.847604e-04  -6.020746e-04  0 
 -4.424748e-04  -5.563032e-04  0 
 -6.679534e-04  -2.965828e-04  0 
 -5.368653e-04  -2.855290e-04  0 
 -5.846271e-04  -2.898241e-04  0 
 -4.810749e-04  -4.326646e-04  0 
 -6.298905e-04  -4.155853e-04  0 
 -5.204118e-04  -5.635539e-04  0 
 -4.081163e-04  -6.278370e-04  0 
 -5.847622e-04  -9.806082e-04  0 
CELL_DATA 43
TENSORS element_stresses FLOAT
 -1.702494e-03  -2.044843e-04  0 
 -2.044843e-04  -1.393727e-03  0 
 0  0  0 

 -1.016453e-03  -3.171106e-04  0 
 -3.171106e-04  -1.464128e-03  0 
 0  0  0 

 -9.885889e-04  1.367732e-04  0 
 1.367732e-04  -1.248653e-03  0 
 0  0  0 

 -1.660691e-03  -1.179061e-03  0 
 -1.179061e-03  -7.590726e-04  0 
 0  0  0 

 -1.138247e-03  -1.124250e-03  0 
 -1.124250e-03  -1.371165e-03  0 
 0  0  0 

 -1.739530e-03  -6.952464e-04  0 
 -6.952464e-04  -1.706759e-03  0 
 0  0  0 

 4.007455e-02  -2.461302e-02  0 
 -2.461302e-02  4.017303e-02  0 
 0  0  0 

 -4.618322e-01  6.730162e-02  0 
 6.730162e-02  5.072025e-01  0 
 0  0  0 

 1.555163e-02  5.812601e-02  0 
 5.812601e-02  8.685588e-03  0 
 0  0  0 

 -5.200660e-01  -1.189896e-01  0 
 -1.189896e-01  1.904951e-01  0 
 0  0  0 

 -2.595558e-03  2.456906e-02  0 
 2.456906e-02  1.367930e-01  0 
 0  0  0 

 -2.754113e-01  -1.317792e-01  0 
 -1.317792e-01  6.705237e-02  0 
 0  0  0 

 -2.711988e-02  9.752194e-02  0 
 9.752194e-02  -9.789549e-02  0 
 0  0  0 

 -1.485993e-01  -2.448886e-01  0 
 -2.448886e-01  -1.643638e-01  0 
 0  0  0 

 -2.394218e-01  -2.283883e-01  0 
 -2.283883e-01  -1.910765e-01  0 
 0  0  0 

 1.137676e-02  5.576384e-02  0 
 5.576384e-02  -1.353661e-01  0 
 0  0  0 

 -1.481775e-01  -2.588815e-01  0 
 -2.588815e-01  2.684056e-01  0 
 0  0  0 

 -7.629190e-02  -2.282266e-01  0 
 -2.282266e-01  1.303131e-01  0 
 0  0  0 

 -2.709593e-02  -4.061070e-02  0 
 -4.061070e-02  -1.072833e-01  0 
 0  0  0 

 -2.029617e-02  -1.868050e-01  0 
 -1.868050e-01  -2.894472e-01  0 
 0  0  0 

 4.170439e-02  -1.294353e-02  0 
 -1.294353e-02  -2.179988e-01  0 
 0  0  0 

 -6.754994e-02  -1.961603e-01  0 
 -1.961603e-01  -3.108360e-01  0 
 0  0  0 

 3.434082e-02  -1.289406e-01  0 
 -1.289406e-01  -3.410158e-01  0 
 0  0  0 

 -1.917953e-01  -5.378364e-03  0 
 -5.378364e-03  7.685154e-02  0 
 0  0  0 

 -1.878502e-01  -1.905239e-01  0 
 -1.905239e-01  1.186661e-01  0 
 0  0  0 

 -7.855525e-02  -1.695077e-01  0 
 -1.695077e-01  -3.020394e-01  0 
 0  0  0 

 -8.328857e-02  -2.004056e-01  0 
 -2.004056e-01  -1.438469e-01  0 
 0  0  0 

 -8.274713e-02  -1.097194e-02  0 
 -1.097194e-02  -1.844609e-02  0 
 0  0  0 

 -9.228503e-02  -1.751501e-01  0 
 -1.751501e-01  2.417486e-02  0 
 0  0  0 

 -5.009419e-02  -2.105490e-01  0 
 -2.105490e-01  -3.149349e-01  0 
 0  0  0 

 -3.887676e-02  -2.105201e-01  0 
 -2.105201e-01  -1.263902e-01  0 
 0  0  0 

 -3.335342e-02  -2.385441e-01  0 
 -2.385441e-01  -2.028851e-01  0 
 0  0  0 

 2.161856e-02  -8.593957e-02  0 
 -8.593957e-02  -1.419097e-01  0 
 0  0  0 

 -6.125802e-02  -1.847498e-01  0 
 -1.847498e-01  -3.055394e-01  0 
 0  0  0 

 1.227694e-02  -2.161088e-01  0 
 -2.161088e-01  -2.797447e-01  0 
 0  0  0 

 -1.065731e-01  -4.175305e-01  0 
 -4.175305e-01  -4.521774e-01  0 
 0  0  0 

 -7.222317e-01  -6.291256e-01  0 
 -6.291256e-01  1.555222e-02  0 
 0  0  0 

 -4.822717e-01  -5.297992e-01  0 
 -5.297992e-01  -5.980635e-02  0 
 0  0  0 

 -8.753828e-02  -3.428746e-01  0 
 -3.428746e-01  -4.214933e-01  0 
 0  0  0 

 -5.964666e-02  1.704466e-01  0 
 1.704466e-01  -4.408741e-04  0 
 0  0  0 

 -3.784067e-04  -4.245012e-04  0 
 -4.245012e-04  -2.762655e-04  0 
 0  0  0 

 -5.666267e-04  -6.755764e-04  0 
 -6.755764e-04  -3.409897e-04  0 
 0  0  0 

 -7.900081e-04  -1.285292e-03  0 
 -1.285292e-03  -6.322343e-04  0 
 0  0  0 

TENSORS element_stresses FLOAT
 -1.702494e-03  -2.044843e-04  0 
 -2.044843e-04  -1.393727e-03  0 
 0  0  0 

 -1.016453e-03  -3.171106e-04  0 
 -3.171106e-04  -1.464128e-03  0 
 0  0  0 

 -9.885889e-04  1.367732e-04  0 
 1.367732e-04  -1.248653e-03  0 
 0  0  0 

 -1.660691e-03  -1.179061e-03  0 
 -1.179061e-03  -7.590726e-04  0 
 0  0  0 

 -1.138247e-03  -1.124250e-03  0 
 -1.124250e-03  -1.371165e-03  0 
 0  0  0 

 -1.739530e-03  -6.952464e-04  0 
 -6.952464e-04  -1.706759e-03  0 
 0  0  0 

 4.007455e-02  -2.461302e-02  0 
 -2.461302e-02  4.017303e-02  0 
 0  0  0 

 -4.618322e-01  6.730162e-02  0 
 6.730162e-02  5.072025e-01  0 
 0  0  0 

 1.555163e-02  5.812601e-02  0 
 5.812601e-02  8.685588e-03  0 
 0  0  0 

 -5.200660e-01  -1.189896e-01  0 
 -1.189896e-01  1.904951e-01  0 
 0  0  0 

 -2.595558e-03  2.456906e-02  0 
 2.456906e-02  1.367930e-01  0 
 0  0  0 

 -2.754113e-01  -1.317792e-01  0 
 -1.317792e-01  6.705237e-02  0 
 0  0  0 

 -2.711988e-02  9.752194e-02  0 
 9.752194e-02  -9.789549e-02  0 
 0  0  0 

 -1.485993e-01  -2.448886e-01  0 
 -2.448886e-01  -1.643638e-01  0 
 0  0  0 

 -2.394218e-01  -2.283883e-01  0 
 -2.283883e-01  -1.910765e-01  0 
 0  0  0 

 1.137676e-02  5.576384e-02  0 
 5.576384e-02  -1.353661e-01  0 
 0  0  0 

 -1.481775e-01  -2.588815e-01  0 
 -2.588815e-01  2.684056e-01  0 
 0  0  0 

 -7.629190e-02  -2.282266e-01  0 
 -2.282266e-01  1.303131e-01  0 
 0  0  0 

 -2.709593e-02  -4.061070e-02  0 
 -4.061070e-02  -1.072833e-01  0 
 0  0  0 

 -2.029617e-02  -1.868050e-01  0 
 -1.868050e-01  -2.894472e-01  0 
 0  0  0 

 4.170439e-02  -1.294353e-02  0 
 -1.294353e-02  -2.179988e-01  0 
 0  0  0 

 -6.754994e-02  -1.961603e-01  0 
 -1.961603e-01  -3.108360e-01  0 
 0  0  0 

 3.434082e-02  -1.289406e-01  0 
 -1.289406e-01  -3.410158e-01  0 
 0  0  0 

 -1.917953e-01  -5.378364e-03  0 
 -5.378364e-03  7.685154e-02  0 
 0  0  0 

 -1.878502e-01  -1.905239e-01  0 
 -1.905239e-01  1.186661e-01  0 
 0  0  0 

 -7.855525e-02  -1.695077e-01  0 
 -1.695077e-01  -3.020394e-01  0 
 0  0  0 

 -8.328857e-02  -2.004056e-01  0 
 -2.004056e-01  -1.438469e-01  0 
 0  0  0 

 -8.274713e-02  -1.097194e-02  0 
 -1.097194e-02  -1.844609e-02  0 
 0  0  0 

 -9.228503e-02  -1.751501e-01  0 
 -1.751501e-01  2.417486e-02  0 
 0  0  0 

 -5.009419e-02  -2.105490e-01  0 
 -2.105490e-01  -3.149349e-01  0 
 0  0  0 

 -3.887676e-02  -2.105201e-01  0 
 -2.105201e-01  -1.263902e-01  0 
 0  0  0 

 -3.335342e-02  -2.385441e-01  0 
 -2.385441e-01  -2.028851e-01  0 
 0  0  0 

 2.161856e-02  -8.593957e-02  0 
 -8.593957e-02  -1.419097e-01  0 
 0  0  0 

 -6.125802e-02  -1.847498e-01  0 
 -1.847498e-01  -3.055394e-01  0 
 0  0  0 

 1.227694e-02  -2.161088e-01  0 
 -2.161088e-01  -2.797447e-01  0 
 0  0  0 

 -1.065731e-01  -4.175305e-01  0 
 -4.175305e-01  -4.521774e-01  0 
 0  0  0 

 -7.222317e-01  -6.291256e-01  0 
 -6.291256e-01  1.555222e-02  0 
 0  0  0 

 -4.822717e-01  -5.297992e-01  0 
 -5.297992e-01  -5.980635e-02  0 
 0  0  0 

 -8.753828e-02  -3.428746e-01  0 
 -3.428746e-01  -4.214933e-01  0 
 0  0  0 

 -5.964666e-02  1.704466e-01  0 
 1.704466e-01  -4.408741e-04  0 
 0  0  0 

 -3.784067e-04  -4.245012e-04  0 
 -4.245012e-04  -2.762655e-04  0 
 0  0  0 

 -5.666267e-04  -6.755764e-04  0 
 -6.755764e-04  -3.409897e-04  0 
 0  0  0 

 -7.900081e-04  -1.285292e-03  0 
 -1.285292e-03  -6.322343e-04  0 
 0  0  0 

