# vtk DataFile Version 3.1
this is an vtk file created by FEMAC
ASCII
DATASET UNSTRUCTURED_GRID
POINTS 30 FLOAT
5.000000 3.000000 0.000000
5.000000 4.000000 0.000000
4.500000 3.000000 0.000000
4.750000 3.000000 0.000000
4.750000 4.000000 0.000000
5.000000 3.250000 0.000000
5.000000 3.500000 0.000000
5.000000 3.750000 0.000000
5.000000 4.250000 0.000000
5.250000 4.000000 0.000000
5.500000 4.000000 0.000000
4.761003 2.832250 0.000000
4.675053 3.181152 0.000000
4.828465 3.345163 0.000000
4.825859 3.583418 0.000000
4.649535 3.397124 0.000000
4.588195 3.700568 0.000000
4.832811 3.806797 0.000000
4.850704 3.155263 0.000000
4.832172 4.245757 0.000000
5.331392 3.813653 0.000000
5.195000 3.255000 0.000000
5.500000 3.775000 0.000000
5.194695 3.661595 0.000000
5.323754 3.413341 0.000000
5.404183 3.616917 0.000000
5.155217 3.845050 0.000000
5.171305 4.165198 0.000000
5.161848 4.344773 0.000000
5.384851 4.278430 0.000000
CELLS 42 168 
3 3 11  0
3 2 11  3
3 12  2  3
3 13  5  6
3 7 14  6
3 13 15 12
3 4 17  1
3 17  7  1
3 18  3  0
3 5 18  0
3 3 18 12
3 17 14  7
3 13 18  5
3 13 12 18
3 13  6 14
3 13 14 15
3 16 15 14
3 17  4 16
3 16 14 17
3 19  4  1
3 8 19  1
3 20 10  9
3 21  6  5
3 20 22 10
3 20 25 22
3 23  7  6
3 23 25 20
3 24  6 21
3 23  6 24
3 23 24 25
3 0 21  5
3 7 26  1
3 9 26 20
3 26  9  1
3 23 26  7
3 23 20 26
3 27 28  8
3 1 27  8
3 1  9 27
3 29  9 10
3 27  9 29
3 29 28 27
CELL_TYPES 42
5 5 5 5 5 5 5 5 5 5 5 5 5 5 5 5 5 5 5 5 5 5 5 5 5 5 5 5 5 5 5 5 5 5 5 5 5 5 5 5 5 5 
POINT_DATA 30
VECTORS displacement_ITER1 FLOAT
 1.463052e-03  -3.252746e-01  0 
 6.557818e-02  -3.252982e-01  0 
 1.466566e-03  -2.675195e-01  0 
 1.467982e-03  -2.963994e-01  0 
 6.555782e-02  -3.128135e-01  0 
 1.749950e-02  -3.252845e-01  0 
 3.353442e-02  -3.252935e-01  0 
 4.956838e-02  -3.253047e-01  0 
 7.800966e-02  -3.252945e-01  0 
 6.560021e-02  -3.413511e-01  0 
 6.561205e-02  -3.574088e-01  0 
 -1.789676e-02  -2.976709e-01  0 
 1.483651e-02  -2.887332e-01  0 
 2.407994e-02  -3.061782e-01  0 
 3.788042e-02  -3.073820e-01  0 
 2.641614e-02  -2.887242e-01  0 
 4.442544e-02  -2.791773e-01  0 
 5.475403e-02  -3.114376e-01  0 
 1.220529e-02  -3.086830e-01  0 
 7.780130e-02  -3.169373e-01  0 
 5.364704e-02  -3.465663e-01  0 
 1.782274e-02  -3.378025e-01  0 
 5.117297e-02  -3.573905e-01  0 
 4.389929e-02  -3.377916e-01  0 
 2.797947e-02  -3.460699e-01  0 
 4.103505e-02  -3.512343e-01  0 
 5.565611e-02  -3.352558e-01  0 
 7.287172e-02  -3.383397e-01  0 
 8.119858e-02  -3.400475e-01  0 
 7.803204e-02  -3.542138e-01  0 
VECTORS displacement_ITER2 FLOAT
 2.569159e-02  -2.577751e-01  0 
 7.079798e-02  -2.578112e-01  0 
 2.569787e-02  -2.115022e-01  0 
 2.569974e-02  -2.346462e-01  0 
 7.077173e-02  -2.507910e-01  0 
 3.698068e-02  -2.577873e-01  0 
 4.826924e-02  -2.577983e-01  0 
 5.955221e-02  -2.578139e-01  0 
 7.775874e-02  -2.578095e-01  0 
 7.083287e-02  -2.691112e-01  0 
 7.085574e-02  -2.804194e-01  0 
 1.018955e-02  -2.356679e-01  0 
 3.480109e-02  -2.284301e-01  0 
 4.126974e-02  -2.423810e-01  0 
 5.055863e-02  -2.437287e-01  0 
 4.218096e-02  -2.287124e-01  0 
 5.371252e-02  -2.214682e-01  0 
 6.307667e-02  -2.480279e-01  0 
 3.313509e-02  -2.443305e-01  0 
 7.764016e-02  -2.531203e-01  0 
 6.242307e-02  -2.727739e-01  0 
 3.721008e-02  -2.666026e-01  0 
 6.068479e-02  -2.803976e-01  0 
 5.556501e-02  -2.665974e-01  0 
 4.436070e-02  -2.724250e-01  0 
 5.354982e-02  -2.760609e-01  0 
 6.383175e-02  -2.648118e-01  0 
 7.475666e-02  -2.678955e-01  0 
 8.015093e-02  -2.706864e-01  0 
 7.842271e-02  -2.806258e-01  0 
VECTORS displacement_ITER3 FLOAT
 6.899595e-03  -1.668059e-01  0 
 4.787300e-02  -1.667674e-01  0 
 6.928866e-03  -1.380246e-01  0 
 6.923768e-03  -1.524326e-01  0 
 4.784298e-02  -1.586020e-01  0 
 1.711097e-02  -1.668072e-01  0 
 2.735845e-02  -1.667939e-01  0 
 3.763351e-02  -1.667892e-01  0 
 5.596249e-02  -1.667519e-01  0 
 4.792230e-02  -1.770909e-01  0 
 4.796077e-02  -1.874153e-01  0 
 -2.715042e-03  -1.530821e-01  0 
 1.398796e-02  -1.457420e-01  0 
 2.021439e-02  -1.548131e-01  0 
 2.912414e-02  -1.547027e-01  0 
 2.151271e-02  -1.426515e-01  0 
 3.181130e-02  -1.349356e-01  0 
 4.032569e-02  -1.578376e-01  0 
 1.278713e-02  -1.572185e-01  0 
 5.582649e-02  -1.612977e-01  0 
 4.024934e-02  -1.804224e-01  0 
 1.731148e-02  -1.747972e-01  0 
 3.867194e-02  -1.873768e-01  0 
 3.399728e-02  -1.747929e-01  0 
 2.380706e-02  -1.800918e-01  0 
 3.216761e-02  -1.834105e-01  0 
 4.152858e-02  -1.731588e-01  0 
 5.243384e-02  -1.767586e-01  0 
 5.914311e-02  -1.800740e-01  0 
 5.705016e-02  -1.904409e-01  0 
VECTORS displacement_ITER4 FLOAT
 2.950912e-03  -1.343596e-01  0 
 3.550786e-02  -1.342908e-01  0 
 2.991053e-03  -1.169420e-01  0 
 2.982841e-03  -1.256644e-01  0 
 3.547673e-02  -1.272741e-01  0 
 1.102795e-02  -1.343615e-01  0 
 1.916699e-02  -1.343371e-01  0 
 2.735347e-02  -1.343219e-01  0 
 4.244093e-02  -1.342671e-01  0 
 3.556314e-02  -1.425423e-01  0 
 3.560875e-02  -1.507931e-01  0 
 -2.841618e-03  -1.260669e-01  0 
 8.245511e-03  -1.199036e-01  0 
 1.322668e-02  -1.255851e-01  0 
 2.045313e-02  -1.248796e-01  0 
 1.452616e-02  -1.159812e-01  0 
 2.275346e-02  -1.086979e-01  0 
 2.945488e-02  -1.270426e-01  0 
 7.314314e-03  -1.278357e-01  0 
 4.232670e-02  -1.295870e-01  0 
 2.943862e-02  -1.451930e-01  0 
 1.118236e-02  -1.406992e-01  0 
 2.818727e-02  -1.507443e-01  0 
 2.445268e-02  -1.407021e-01  0 
 1.634528e-02  -1.449153e-01  0 
 2.299978e-02  -1.475680e-01  0 
 3.045458e-02  -1.393946e-01  0 
 3.926244e-02  -1.431849e-01  0 
 4.552620e-02  -1.469172e-01  0 
 4.369020e-02  -1.561192e-01  0 
VECTORS displacement_ITER5 FLOAT
 3.202875e-03  -8.676038e-02  0 
 2.493121e-02  -8.670403e-02  0 
 3.248955e-03  -8.044735e-02  0 
 3.239199e-03  -8.359568e-02  0 
 2.489991e-02  -8.216586e-02  0 
 8.542557e-03  -8.677722e-02  0 
 1.397482e-02  -8.675103e-02  0 
 1.946841e-02  -8.673342e-02  0 
 2.938580e-02  -8.667595e-02  0 
 2.499224e-02  -9.226688e-02  0 
 2.504492e-02  -9.783515e-02  0 
 1.141576e-03  -8.374840e-02  0 
 6.908280e-03  -8.032428e-02  0 
 1.012646e-02  -8.241406e-02  0 
 1.500483e-02  -8.151027e-02  0 
 1.140113e-02  -7.723856e-02  0 
 1.688659e-02  -7.227181e-02  0 
 2.082350e-02  -8.245044e-02  0 
 6.124661e-03  -8.392658e-02  0 
 2.931575e-02  -8.366051e-02  0 
 2.087104e-02  -9.403838e-02  0 
 8.641689e-03  -9.099615e-02  0 
 2.003918e-02  -9.777726e-02  0 
 1.751906e-02  -9.101594e-02  0 
 1.209314e-02  -9.382857e-02  0 
 1.655085e-02  -9.562307e-02  0 
 2.154743e-02  -9.013509e-02  0 
 2.717946e-02  -9.408857e-02  0 
 3.247127e-02  -9.856296e-02  0 
 3.122975e-02  -1.058695e-01  0 
VECTORS displacement_ITER6 FLOAT
 2.065003e-03  -6.428467e-02  0 
 2.384484e-02  -6.424644e-02  0 
 2.109761e-03  -6.057094e-02  0 
 2.100525e-03  -6.240558e-02  0 
 2.381351e-02  -5.950163e-02  0 
 7.411830e-03  -6.431019e-02  0 
 1.286095e-02  -6.428597e-02  0 
 1.837064e-02  -6.427098e-02  0 
 2.850702e-02  -6.421522e-02  0 
 2.391210e-02  -6.982254e-02  0 
 2.396953e-02  -7.540714e-02  0 
 8.742480e-04  -6.249569e-02  0 
 6.091429e-03  -6.054512e-02  0 
 9.348250e-03  -6.157375e-02  0 
 1.414978e-02  -6.060330e-02  0 
 1.089867e-02  -5.832194e-02  0 
 1.570884e-02  -5.543503e-02  0 
 1.920135e-02  -6.113769e-02  0 
 5.243094e-03  -6.264242e-02  0 
 2.843471e-02  -6.105948e-02  0 
 1.977999e-02  -7.159655e-02  0 
 7.511740e-03  -6.853972e-02  0 
 1.894665e-02  -7.534827e-02  0 
 1.641665e-02  -6.856405e-02  0 
 1.097444e-02  -7.138344e-02  0 
 1.544609e-02  -7.318540e-02  0 
 2.045637e-02  -6.768215e-02  0 
 2.618966e-02  -7.150753e-02  0 
 3.143716e-02  -7.566608e-02  0 
 3.011188e-02  -8.305072e-02  0 
VECTORS displacement_ITER7 FLOAT
 6.199986e-04  -4.580091e-02  0 
 2.223115e-02  -4.583110e-02  0 
 6.554329e-04  -3.889816e-02  0 
 6.496187e-04  -4.231794e-02  0 
 2.219716e-02  -4.225027e-02  0 
 5.951050e-03  -4.583934e-02  0 
 1.137105e-02  -4.583121e-02  0 
 1.682758e-02  -4.583474e-02  0 
 2.573691e-02  -4.580699e-02  0 
 2.230766e-02  -5.132938e-02  0 
 2.237012e-02  -5.684571e-02  0 
 -1.647396e-03  -4.247140e-02  0 
 4.648077e-03  -4.153638e-02  0 
 7.982997e-03  -4.323962e-02  0 
 1.229386e-02  -4.295566e-02  0 
 8.994173e-03  -4.118397e-02  0 
 1.160649e-02  -4.207229e-02  0 
 1.657728e-02  -4.443427e-02  0 
 3.998437e-03  -4.374716e-02  0 
 2.568154e-02  -4.342698e-02  0 
 1.822731e-02  -5.307981e-02  0 
 6.056145e-03  -5.005083e-02  0 
 1.740117e-02  -5.679390e-02  0 
 1.489874e-02  -5.007826e-02  0 
 9.498699e-03  -5.287579e-02  0 
 1.393517e-02  -5.465819e-02  0 
 1.889320e-02  -4.921101e-02  0 
 2.403654e-02  -5.270930e-02  0 
 2.858030e-02  -5.673098e-02  0 
 2.756077e-02  -6.346704e-02  0 
VECTORS displacement_ITER8 FLOAT
 1.562710e-03  -3.951806e-02  0 
 1.932043e-02  -3.955930e-02  0 
 1.598384e-03  -3.479006e-02  0 
 1.592299e-03  -3.712398e-02  0 
 1.928656e-02  -3.642611e-02  0 
 5.934194e-03  -3.955784e-02  0 
 1.039183e-02  -3.955205e-02  0 
 1.488319e-02  -3.955847e-02  0 
 2.238204e-02  -3.953531e-02  0 
 1.939781e-02  -4.408800e-02  0 
 1.946020e-02  -4.863684e-02  0 
 2.483577e-05  -3.723051e-02  0 
 4.662701e-03  -3.617252e-02  0 
 7.404112e-03  -3.733974e-02  0 
 1.072356e-02  -3.709029e-02  0 
 8.032114e-03  -3.566403e-02  0 
 8.499177e-03  -3.791349e-02  0 
 1.387519e-02  -3.894037e-02  0 
 4.192390e-03  -3.789486e-02  0 
 2.233443e-02  -3.745457e-02  0 
 1.603858e-02  -4.552356e-02  0 
 6.021166e-03  -4.301968e-02  0 
 1.536174e-02  -4.858583e-02  0 
 1.329696e-02  -4.304944e-02  0 
 8.854186e-03  -4.534870e-02  0 
 1.250613e-02  -4.682089e-02  0 
 1.658275e-02  -4.233614e-02  0 
 2.084588e-02  -4.559633e-02  0 
 2.498944e-02  -4.932809e-02  0 
 2.406114e-02  -5.532909e-02  0 
VECTORS displacement_ITER9 FLOAT
 4.566106e-03  -3.117866e-02  0 
 1.733502e-02  -3.117102e-02  0 
 4.605868e-03  -3.035108e-02  0 
 4.598000e-03  -3.074421e-02  0 
 1.730477e-02  -2.636218e-02  0 
 7.674032e-03  -3.121027e-02  0 
 1.087261e-02  -3.119475e-02  0 
 1.412178e-02  -3.118635e-02  0 
 2.206937e-02  -3.113426e-02  0 
 1.740540e-02  -3.448062e-02  0 
 1.746235e-02  -3.780392e-02  0 
 4.338970e-03  -3.076986e-02  0 
 6.712438e-03  -2.914443e-02  0 
 8.524953e-03  -2.937582e-02  0 
 1.082725e-02  -2.870886e-02  0 
 9.087338e-03  -2.760189e-02  0 
 8.268145e-03  -2.942834e-02  0 
 1.270025e-02  -3.004175e-02  0 
 6.234351e-03  -3.028789e-02  0 
 2.199883e-02  -2.793354e-02  0 
 1.495985e-02  -3.551804e-02  0 
 7.732718e-03  -3.368893e-02  0 
 1.447663e-02  -3.774498e-02  0 
 1.297018e-02  -3.371839e-02  0 
 9.769107e-03  -3.537206e-02  0 
 1.240432e-02  -3.644836e-02  0 
 1.535106e-02  -3.319682e-02  0 
 1.967313e-02  -3.625718e-02  0 
 2.450155e-02  -3.915257e-02  0 
 2.303914e-02  -4.520739e-02  0 
VECTORS displacement_ITER10 FLOAT
 8.340467e-04  -2.333135e-02  0 
 7.457523e-03  -2.332942e-02  0 
 8.622456e-04  -1.795958e-02  0 
 8.587661e-04  -2.062654e-02  0 
 7.426925e-03  -1.961391e-02  0 
 2.422305e-03  -2.336639e-02  0 
 4.083522e-03  -2.335910e-02  0 
 5.785709e-03  -2.335070e-02  0 
 1.109519e-02  -2.328788e-02  0 
 7.524177e-03  -2.509980e-02  0 
 7.576625e-03  -2.688321e-02  0 
 -9.255535e-04  -2.074765e-02  0 
 2.420148e-03  -2.011570e-02  0 
 3.053049e-03  -2.142149e-02  0 
 3.713829e-03  -2.146485e-02  0 
 2.958218e-03  -2.059592e-02  0 
 8.784896e-04  -2.307281e-02  0 
 4.243036e-03  -2.272735e-02  0 
 1.999557e-03  -2.182177e-02  0 
 1.104541e-02  -2.082618e-02  0 
 6.228159e-03  -2.563718e-02  0 
 2.453233e-03  -2.465290e-02  0 
 5.983589e-03  -2.682213e-02  0 
 5.180402e-03  -2.468109e-02  0 
 3.513170e-03  -2.554039e-02  0 
 4.889904e-03  -2.611789e-02  0 
 6.426758e-03  -2.440232e-02  0 
 9.140845e-03  -2.725211e-02  0 
 1.339337e-02  -3.004106e-02  0 
 1.214601e-02  -3.501450e-02  0 
VECTORS displacement_ITER11 FLOAT
 4.670436e-03  -1.908594e-02  0 
 7.739080e-03  -1.909482e-02  0 
 4.689874e-03  -1.161086e-02  0 
 4.689368e-03  -1.532735e-02  0 
 7.706727e-03  -1.683420e-02  0 
 5.386580e-03  -1.912441e-02  0 
 6.161712e-03  -1.912442e-02  0 
 6.966237e-03  -1.911852e-02  0 
 9.918091e-03  -1.905211e-02  0 
 7.804662e-03  -1.996851e-02  0 
 7.854935e-03  -2.085463e-02  0 
 2.197925e-03  -1.549031e-02  0 
 6.102506e-03  -1.575814e-02  0 
 6.033978e-03  -1.748057e-02  0 
 5.765196e-03  -1.792321e-02  0 
 5.712832e-03  -1.754975e-02  0 
 3.173193e-03  -2.018461e-02  0 
 5.601668e-03  -1.906257e-02  0 
 5.643335e-03  -1.749604e-02  0 
 9.893355e-03  -1.757084e-02  0 
 7.178212e-03  -2.021500e-02  0 
 5.402384e-03  -1.972447e-02  0 
 7.071429e-03  -2.079481e-02  0 
 6.678547e-03  -1.975010e-02  0 
 5.898704e-03  -2.015115e-02  0 
 6.546628e-03  -2.043711e-02  0 
 7.264627e-03  -1.961211e-02  0 
 8.568220e-03  -2.225910e-02  0 
 1.194533e-02  -2.500437e-02  0 
 1.102696e-02  -2.906282e-02  0 
VECTORS displacement_ITER12 FLOAT
 -8.519015e-04  -1.451011e-02  0 
 3.203518e-03  -1.453649e-02  0 
 -8.369037e-04  -5.334282e-03  0 
 -8.361547e-04  -9.898696e-03  0 
 3.167959e-03  -1.353167e-02  0 
 1.252379e-04  -1.455178e-02  0 
 1.152815e-03  -1.455800e-02  0 
 2.197877e-03  -1.455780e-02  0 
 4.123355e-03  -1.449632e-02  0 
 3.270704e-03  -1.564415e-02  0 
 3.321063e-03  -1.676518e-02  0 
 -3.899520e-03  -1.009638e-02  0 
 1.087193e-03  -1.072858e-02  0 
 1.117409e-03  -1.288793e-02  0 
 1.075973e-03  -1.356267e-02  0 
 9.161764e-04  -1.313761e-02  0 
 -8.961608e-04  -1.573183e-02  0 
 1.285582e-03  -1.476083e-02  0 
 4.933876e-04  -1.272310e-02  0 
 4.118634e-03  -1.386058e-02  0 
 2.469476e-03  -1.596801e-02  0 
 1.481471e-04  -1.535091e-02  0 
 2.324432e-03  -1.670899e-02  0 
 1.826542e-03  -1.537403e-02  0 
 8.029402e-04  -1.590393e-02  0 
 1.649631e-03  -1.626390e-02  0 
 2.585515e-03  -1.519820e-02  0 
 3.394964e-03  -1.768063e-02  0 
 6.124817e-03  -2.047940e-02  0 
 5.496023e-03  -2.425827e-02  0 
VECTORS displacement_ITER13 FLOAT
 -6.293561e-03  -1.199016e-02  0 
 -4.027867e-04  -1.198761e-02  0 
 -6.262838e-03  -1.275069e-02  0 
 -6.268810e-03  -1.235093e-02  0 
 -4.397057e-04  -1.112340e-02  0 
 -4.878598e-03  -1.202395e-02  0 
 -3.393501e-03  -1.201784e-02  0 
 -1.877422e-03  -1.201215e-02  0 
 3.728831e-04  -1.194706e-02  0 
 -3.363073e-04  -1.356563e-02  0 
 -2.857890e-04  -1.515345e-02  0 
 -5.999176e-03  -1.233830e-02  0 
 -4.419398e-03  -1.164661e-02  0 
 -4.048763e-03  -1.144124e-02  0 
 -3.118655e-03  -1.107239e-02  0 
 -3.372555e-03  -1.093477e-02  0 
 -4.094020e-03  -1.186444e-02  0 
 -2.251939e-03  -1.189003e-02  0 
 -5.215278e-03  -1.206481e-02  0 
 3.706335e-04  -1.140848e-02  0 
 -1.487532e-03  -1.404270e-02  0 
 -4.850989e-03  -1.317122e-02  0 
 -1.704866e-03  -1.509888e-02  0 
 -2.416600e-03  -1.319439e-02  0 
 -3.903385e-03  -1.396316e-02  0 
 -2.676164e-03  -1.447469e-02  0 
 -1.312280e-03  -1.294248e-02  0 
 -3.155430e-04  -1.522240e-02  0 
 2.076311e-03  -1.762298e-02  0 
 1.430538e-03  -2.162167e-02  0 
VECTORS displacement_ITER14 FLOAT
 -5.533699e-03  -1.027122e-02  0 
 1.712814e-03  -1.026673e-02  0 
 -5.500391e-03  -1.192491e-02  0 
 -5.507588e-03  -1.108147e-02  0 
 1.674955e-03  -9.519411e-03  0 
 -3.779073e-03  -1.030249e-02  0 
 -1.953470e-03  -1.029482e-02  0 
 -9.802716e-05  -1.029009e-02  0 
 2.370065e-03  -1.022662e-02  0 
 1.778856e-03  -1.217973e-02  0 
 1.828281e-03  -1.410096e-02  0 
 -4.938638e-03  -1.105129e-02  0 
 -3.520687e-03  -9.944748e-03  0 
 -2.915420e-03  -9.602882e-03  0 
 -1.570498e-03  -9.108639e-03  0 
 -2.093220e-03  -8.659721e-03  0 
 -2.282310e-03  -9.158793e-03  0 
 -2.663895e-04  -9.980975e-03  0 
 -4.358370e-03  -1.039942e-02  0 
 2.370028e-03  -9.768031e-03  0 
 3.775742e-04  -1.276708e-02  0 
 -3.745246e-03  -1.171426e-02  0 
 1.071367e-04  -1.405034e-02  0 
 -7.567727e-04  -1.173533e-02  0 
 -2.581809e-03  -1.268056e-02  0 
 -1.077603e-03  -1.329944e-02  0 
 5.952553e-04  -1.142982e-02  0 
 1.690823e-03  -1.349939e-02  0 
 3.641448e-03  -1.550529e-02  0 
 3.021648e-03  -1.950421e-02  0 
VECTORS displacement_ITER15 FLOAT
 -1.249689e-03  -9.423831e-03  0 
 4.541206e-03  -9.446959e-03  0 
 -1.221280e-03  -8.461629e-03  0 
 -1.226959e-03  -8.928886e-03  0 
 4.500679e-03  -1.030410e-02  0 
 1.628558e-04  -9.456389e-03  0 
 1.632233e-03  -9.456345e-03  0 
 3.114315e-03  -9.461384e-03  0 
 3.593429e-03  -9.411133e-03  0 
 4.607886e-03  -1.097050e-02  0 
 4.655234e-03  -1.250259e-02  0 
 -1.536468e-03  -8.955117e-03  0 
 5.210826e-04  -8.072765e-03  0 
 8.981455e-04  -8.426508e-03  0 
 1.762954e-03  -8.386009e-03  0 
 1.304244e-03  -7.629484e-03  0 
 5.782368e-04  -8.563331e-03  0 
 2.930018e-03  -9.721526e-03  0 
 -1.944119e-04  -9.009060e-03  0 
 3.619923e-03  -1.003105e-02  0 
 3.494251e-03  -1.143468e-02  0 
 1.922468e-04  -1.059420e-02  0 
 3.279152e-03  -1.246247e-02  0 
 2.590713e-03  -1.061134e-02  0 
 1.128029e-03  -1.137117e-02  0 
 2.333324e-03  -1.186430e-02  0 
 3.664007e-03  -1.036689e-02  0 
 3.467381e-03  -1.198909e-02  0 
 3.706560e-03  -1.345463e-02  0 
 3.530784e-03  -1.634526e-02  0 
VECTORS displacement_ITER16 FLOAT
 1.575848e-04  -9.431904e-03  0 
 5.089091e-03  -9.473200e-03  0 
 1.815302e-04  -5.485738e-03  0 
 1.771078e-04  -7.444831e-03  0 
 5.047400e-03  -1.035549e-02  0 
 1.371219e-03  -9.466624e-03  0 
 2.629841e-03  -9.472660e-03  0 
 3.889489e-03  -9.482861e-03  0 
 4.116277e-03  -9.439078e-03  0 
 5.156881e-03  -1.076750e-02  0 
 5.203427e-03  -1.207050e-02  0 
 -1.134398e-03  -7.534622e-03  0 
 1.927858e-03  -7.092555e-03  0 
 2.153376e-03  -8.153900e-03  0 
 2.677404e-03  -8.427630e-03  0 
 2.308653e-03  -7.614579e-03  0 
 1.354598e-03  -8.865365e-03  0 
 3.620006e-03  -9.804129e-03  0 
 1.268310e-03  -8.482142e-03  0 
 4.143260e-03  -1.007574e-02  0 
 4.212849e-03  -1.115838e-02  0 
 1.398627e-03  -1.044395e-02  0 
 4.030653e-03  -1.203530e-02  0 
 3.446117e-03  -1.045797e-02  0 
 2.198917e-03  -1.110818e-02  0 
 3.226373e-03  -1.152678e-02  0 
 4.354112e-03  -1.024968e-02  0 
 3.830848e-03  -1.175721e-02  0 
 3.488871e-03  -1.283638e-02  0 
 3.342549e-03  -1.544054e-02  0 
VECTORS displacement_ITER17 FLOAT
 8.389025e-05  -9.329032e-03  0 
 3.005126e-03  -9.338470e-03  0 
 1.164234e-04  -1.014446e-02  0 
 1.088972e-04  -9.724645e-03  0 
 2.965632e-03  -8.501813e-03  0 
 7.727570e-04  -9.360034e-03  0 
 1.521433e-03  -9.356480e-03  0 
 2.288371e-03  -9.356273e-03  0 
 3.749972e-03  -9.298667e-03  0 
 3.071013e-03  -1.015369e-02  0 
 3.117137e-03  -1.097454e-02  0 
 3.958822e-04  -9.713757e-03  0 
 1.330614e-03  -8.964850e-03  0 
 1.245253e-03  -8.780117e-03  0 
 1.581667e-03  -8.468645e-03  0 
 1.676126e-03  -8.255264e-03  0 
 8.037195e-04  -8.524527e-03  0 
 1.982803e-03  -9.042348e-03  0 
 6.661577e-04  -9.382838e-03  0 
 3.750645e-03  -8.782058e-03  0 
 2.486430e-03  -1.038627e-02  0 
 7.866410e-04  -9.935281e-03  0 
 2.381952e-03  -1.093289e-02  0 
 2.016089e-03  -9.952255e-03  0 
 1.265829e-03  -1.034194e-02  0 
 1.887221e-03  -1.060641e-02  0 
 2.567081e-03  -9.819469e-03  0 
 2.483927e-03  -1.156521e-02  0 
 2.824228e-03  -1.236374e-02  0 
 2.215603e-03  -1.546438e-02  0 
VECTORS displacement_ITER18 FLOAT
 1.816502e-04  -9.327885e-03  0 
 3.050751e-03  -9.353816e-03  0 
 2.109428e-04  -7.365648e-03  0 
 2.048221e-04  -8.333826e-03  0 
 3.010273e-03  -8.503111e-03  0 
 8.667893e-04  -9.362117e-03  0 
 1.605610e-03  -9.363549e-03  0 
 2.355400e-03  -9.367682e-03  0 
 3.809885e-03  -9.315816e-03  0 
 3.119272e-03  -1.014789e-02  0 
 3.166664e-03  -1.094946e-02  0 
 -4.398225e-04  -8.382247e-03  0 
 1.483165e-03  -7.948036e-03  0 
 1.419385e-03  -8.463993e-03  0 
 1.639846e-03  -8.447419e-03  0 
 1.646177e-03  -8.056291e-03  0 
 6.829941e-04  -8.852155e-03  0 
 1.957060e-03  -9.126013e-03  0 
 8.883820e-04  -8.840428e-03  0 
 3.809757e-03  -8.788503e-03  0 
 2.549592e-03  -1.037350e-02  0 
 8.822251e-04  -9.932080e-03  0 
 2.447344e-03  -1.090882e-02  0 
 2.090475e-03  -9.948926e-03  0 
 1.354232e-03  -1.033213e-02  0 
 1.963757e-03  -1.059029e-02  0 
 2.627284e-03  -9.819851e-03  0 
 2.462065e-03  -1.164534e-02  0 
 2.673813e-03  -1.247225e-02  0 
 2.077951e-03  -1.555979e-02  0 
VECTORS displacement_ITER19 FLOAT
 -7.465593e-05  -8.380793e-03  0 
 2.029439e-03  -8.401525e-03  0 
 -4.283246e-05  -6.711202e-03  0 
 -4.982610e-05  -7.534366e-03  0 
 1.989307e-03  -7.532322e-03  0 
 4.151763e-04  -8.414545e-03  0 
 9.617997e-04  -8.414438e-03  0 
 1.522216e-03  -8.417014e-03  0 
 2.805745e-03  -8.361909e-03  0 
 2.097533e-03  -9.008509e-03  0 
 2.144554e-03  -9.622176e-03  0 
 -5.957487e-04  -7.577605e-03  0 
 1.090807e-03  -7.127107e-03  0 
 9.026256e-04  -7.594379e-03  0 
 1.017219e-03  -7.575620e-03  0 
 1.119769e-03  -7.194027e-03  0 
 2.452536e-04  -7.867262e-03  0 
 1.193013e-03  -8.115633e-03  0 
 5.064433e-04  -7.967255e-03  0 
 2.806307e-03  -7.822975e-03  0 
 1.667955e-03  -9.172922e-03  0 
 4.261344e-04  -8.833830e-03  0 
 1.595208e-03  -9.580772e-03  0 
 1.323699e-03  -8.851476e-03  0 
 7.767460e-04  -9.135953e-03  0 
 1.231217e-03  -9.333896e-03  0 
 1.722089e-03  -8.751826e-03  0 
 1.357761e-03  -1.061410e-02  0 
 1.411828e-03  -1.137929e-02  0 
 8.086662e-04  -1.439671e-02  0 
VECTORS displacement_ITER20 FLOAT
 5.304358e-04  -8.509632e-03  0 
 2.140465e-03  -8.546619e-03  0 
 5.590365e-04  -5.631474e-03  0 
 5.535774e-04  -7.057929e-03  0 
 2.099151e-03  -8.644153e-03  0 
 9.056144e-04  -8.546624e-03  0 
 1.332616e-03  -8.551126e-03  0 
 1.765729e-03  -8.558402e-03  0 
 1.949469e-03  -8.508783e-03  0 
 2.210012e-03  -9.020275e-03  0 
 2.257538e-03  -9.501593e-03  0 
 -3.975585e-04  -7.126113e-03  0 
 1.594119e-03  -6.944283e-03  0 
 1.377117e-03  -7.713159e-03  0 
 1.324714e-03  -7.937579e-03  0 
 1.420033e-03  -7.536602e-03  0 
 3.661385e-04  -8.622042e-03  0 
 1.443606e-03  -8.685202e-03  0 
 1.097639e-03  -7.902536e-03  0 
 1.965806e-03  -8.619001e-03  0 
 1.878970e-03  -9.142022e-03  0 
 9.158578e-04  -8.874363e-03  0 
 1.825211e-03  -9.463232e-03  0 
 1.613632e-03  -8.891566e-03  0 
 1.189784e-03  -9.112975e-03  0 
 1.542665e-03  -9.268198e-03  0 
 1.916376e-03  -8.812976e-03  0 
 9.157072e-04  -1.060816e-02  0 
 3.650842e-04  -1.146983e-02  0 
 1.868028e-05  -1.403851e-02  0 
VECTORS displacement_ITER21 FLOAT
 -1.234289e-03  -7.946990e-03  0 
 1.931845e-03  -7.963376e-03  0 
 -1.198412e-03  -9.637815e-03  0 
 -1.206764e-03  -8.781900e-03  0 
 1.891617e-03  -7.147170e-03  0 
 -4.825498e-04  -7.979837e-03  0 
 3.306021e-04  -7.977164e-03  0 
 1.159020e-03  -7.979006e-03  0 
 2.653931e-03  -7.922959e-03  0 
 2.000473e-03  -8.836632e-03  0 
 2.048149e-03  -9.714455e-03  0 
 -6.249908e-04  -8.753578e-03  0 
 -1.815285e-04  -7.845163e-03  0 
 -7.909873e-05  -7.531506e-03  0 
 4.909833e-04  -7.174367e-03  0 
 4.050046e-04  -6.835349e-03  0 
 -6.521873e-05  -7.178211e-03  0 
 9.507568e-04  -7.644444e-03  0 
 -7.387211e-04  -8.127701e-03  0 
 2.655706e-03  -7.420016e-03  0 
 1.372685e-03  -9.087578e-03  0 
 -4.669331e-04  -8.604934e-03  0 
 1.258246e-03  -9.675389e-03  0 
 8.657244e-04  -8.621295e-03  0 
 5.276057e-05  -9.044235e-03  0 
 7.252228e-04  -9.327507e-03  0 
 1.460042e-03  -8.478936e-03  0 
 1.204121e-03  -1.031742e-02  0 
 1.123742e-03  -1.099254e-02  0 
 5.158489e-04  -1.414575e-02  0 
VECTORS displacement_ITER22 FLOAT
 -3.307385e-04  -7.760766e-03  0 
 1.645061e-03  -7.787702e-03  0 
 -3.010241e-04  -6.310134e-03  0 
 -3.069233e-04  -7.023586e-03  0 
 1.603992e-03  -7.919352e-03  0 
 1.373317e-04  -7.796517e-03  0 
 6.558853e-04  -7.799594e-03  0 
 1.179687e-03  -7.804190e-03  0 
 1.416198e-03  -7.746050e-03  0 
 1.714157e-03  -8.355955e-03  0 
 1.761403e-03  -8.927257e-03  0 
 -7.793146e-04  -7.061199e-03  0 
 6.507323e-04  -6.798022e-03  0 
 5.880812e-04  -7.223359e-03  0 
 7.856316e-04  -7.294941e-03  0 
 7.827938e-04  -6.971724e-03  0 
 3.176144e-04  -7.584473e-03  0 
 1.079345e-03  -7.817693e-03  0 
 1.969727e-04  -7.446149e-03  0 
 1.434357e-03  -7.881184e-03  0 
 1.314870e-03  -8.507785e-03  0 
 1.492070e-04  -8.195806e-03  0 
 1.246519e-03  -8.890722e-03  0 
 9.946192e-04  -8.208784e-03  0 
 4.800919e-04  -8.479491e-03  0 
 9.066593e-04  -8.662145e-03  0 
 1.363718e-03  -8.114027e-03  0 
 3.411066e-04  -9.916005e-03  0 
 -3.182243e-04  -1.068234e-02  0 
 -6.996274e-04  -1.339629e-02  0 
VECTORS displacement_ITER23 FLOAT
 2.265755e-05  -7.246794e-03  0 
 1.929302e-03  -7.251598e-03  0 
 5.899534e-05  -7.760115e-03  0 
 5.041223e-05  -7.495174e-03  0 
 1.889257e-03  -6.745307e-03  0 
 4.635379e-04  -7.278031e-03  0 
 9.611242e-04  -7.274979e-03  0 
 1.472328e-03  -7.273827e-03  0 
 2.336090e-03  -7.206013e-03  0 
 1.997090e-03  -7.814629e-03  0 
 2.043863e-03  -8.377116e-03  0 
 2.373626e-04  -7.493366e-03  0 
 8.011141e-04  -6.794435e-03  0 
 7.603190e-04  -6.780071e-03  0 
 1.097119e-03  -6.583588e-03  0 
 1.074611e-03  -6.168259e-03  0 
 9.023813e-04  -6.119696e-03  0 
 1.449461e-03  -6.880647e-03  0 
 3.633102e-04  -7.214792e-03  0 
 2.344939e-03  -6.914228e-03  0 
 1.603799e-03  -7.963584e-03  0 
 4.728794e-04  -7.658779e-03  0 
 1.537858e-03  -8.338844e-03  0 
 1.289997e-03  -7.670848e-03  0 
 7.912552e-04  -7.933230e-03  0 
 1.205284e-03  -8.112927e-03  0 
 1.651635e-03  -7.576257e-03  0 
 8.978681e-04  -9.458347e-03  0 
 4.829996e-04  -1.008889e-02  0 
 -8.733582e-05  -1.310548e-02  0 
VECTORS displacement_ITER24 FLOAT
 6.560668e-04  -7.178755e-03  0 
 1.623848e-03  -7.182367e-03  0 
 6.925778e-04  -5.734056e-03  0 
 6.839026e-04  -6.448402e-03  0 
 1.583987e-03  -6.861805e-03  0 
 8.638212e-04  -7.210600e-03  0 
 1.126276e-03  -7.208485e-03  0 
 1.401609e-03  -7.206748e-03  0 
 1.843275e-03  -7.134966e-03  0 
 1.691349e-03  -7.512593e-03  0 
 1.737847e-03  -7.841195e-03  0 
 2.143256e-04  -6.489404e-03  0 
 1.312836e-03  -6.141476e-03  0 
 1.139626e-03  -6.588137e-03  0 
 1.216485e-03  -6.630414e-03  0 
 1.245892e-03  -6.195339e-03  0 
 1.107808e-03  -6.198261e-03  0 
 1.410734e-03  -6.865399e-03  0 
 9.610828e-04  -6.809760e-03  0 
 1.855961e-03  -6.968863e-03  0 
 1.472728e-03  -7.585280e-03  0 
 8.687332e-04  -7.409171e-03  0 
 1.443193e-03  -7.802319e-03  0 
 1.302316e-03  -7.420881e-03  0 
 1.037646e-03  -7.562259e-03  0 
 1.259560e-03  -7.666187e-03  0 
 1.491101e-03  -7.362961e-03  0 
 4.408938e-04  -9.316876e-03  0 
 -5.797300e-05  -1.004410e-02  0 
 -5.957606e-04  -1.296006e-02  0 
VECTORS displacement_ITER25 FLOAT
 6.959907e-05  -7.047977e-03  0 
 1.154121e-03  -7.045632e-03  0 
 1.086166e-04  -5.285280e-03  0 
 9.905086e-05  -6.159453e-03  0 
 1.114878e-03  -6.523787e-03  0 
 3.038510e-04  -7.079303e-03  0 
 5.947036e-04  -7.075797e-03  0 
 9.004118e-04  -7.072381e-03  0 
 1.573670e-03  -6.995876e-03  0 
 1.221582e-03  -7.409349e-03  0 
 1.268231e-03  -7.769564e-03  0 
 -4.767248e-04  -6.208456e-03  0 
 6.331216e-04  -5.996679e-03  0 
 5.629766e-04  -6.497431e-03  0 
 7.003878e-04  -6.562990e-03  0 
 6.293440e-04  -6.175713e-03  0 
 7.078640e-04  -6.151736e-03  0 
 9.143702e-04  -6.683700e-03  0 
 3.741947e-04  -6.626731e-03  0 
 1.583716e-03  -6.695065e-03  0 
 9.792019e-04  -7.492203e-03  0 
 3.088323e-04  -7.299627e-03  0 
 9.450664e-04  -7.730374e-03  0 
 7.898668e-04  -7.310885e-03  0 
 4.957572e-04  -7.467818e-03  0 
 7.418688e-04  -7.581904e-03  0 
 1.001369e-03  -7.247468e-03  0 
 5.585334e-05  -9.257941e-03  0 
 -3.229721e-04  -9.981790e-03  0 
 -9.340901e-04  -1.305371e-02  0 
VECTORS displacement_ITER26 FLOAT
 4.412425e-04  -6.828884e-03  0 
 1.777443e-03  -6.814389e-03  0 
 4.848837e-04  -6.321275e-03  0 
 4.736803e-04  -6.569959e-03  0 
 1.739134e-03  -6.011002e-03  0 
 7.316622e-04  -6.858285e-03  0 
 1.083721e-03  -6.851121e-03  0 
 1.455607e-03  -6.844590e-03  0 
 2.477075e-03  -6.761432e-03  0 
 1.844232e-03  -7.248257e-03  0 
 1.890589e-03  -7.675760e-03  0 
 3.196465e-04  -6.593800e-03  0 
 8.133765e-04  -6.210120e-03  0 
 8.828555e-04  -6.404613e-03  0 
 1.171697e-03  -6.321393e-03  0 
 9.947320e-04  -5.952685e-03  0 
 1.231793e-03  -5.720645e-03  0 
 1.456712e-03  -6.349258e-03  0 
 6.424876e-04  -6.600695e-03  0 
 2.483462e-03  -6.272409e-03  0 
 1.551089e-03  -7.353272e-03  0 
 7.366440e-04  -7.124747e-03  0 
 1.507003e-03  -7.636360e-03  0 
 1.320824e-03  -7.135639e-03  0 
 9.628631e-04  -7.325648e-03  0 
 1.261628e-03  -7.461690e-03  0 
 1.581671e-03  -7.060745e-03  0 
 8.104133e-04  -9.061457e-03  0 
 5.288170e-04  -9.657548e-03  0 
 -1.808338e-04  -1.289606e-02  0 
VECTORS displacement_ITER27 FLOAT
 4.692483e-04  -6.491059e-03  0 
 1.573420e-03  -6.475813e-03  0 
 5.124156e-04  -4.850336e-03  0 
 5.014100e-04  -5.666074e-03  0 
 1.535409e-03  -5.974762e-03  0 
 7.052104e-04  -6.520965e-03  0 
 9.996764e-04  -6.515004e-03  0 
 1.311583e-03  -6.508359e-03  0 
 1.968863e-03  -6.420651e-03  0 
 1.639863e-03  -6.851770e-03  0 
 1.685661e-03  -7.219298e-03  0 
 -3.263355e-05  -5.714644e-03  0 
 7.410355e-04  -5.516106e-03  0 
 8.336236e-04  -5.988285e-03  0 
 1.048632e-03  -6.059931e-03  0 
 8.084830e-04  -5.631919e-03  0 
 1.082990e-03  -5.523983e-03  0 
 1.324438e-03  -6.132981e-03  0 
 6.645423e-04  -6.044974e-03  0 
 1.980947e-03  -6.135590e-03  0 
 1.391290e-03  -6.937754e-03  0 
 7.095647e-04  -6.743756e-03  0 
 1.356213e-03  -7.180738e-03  0 
 1.197891e-03  -6.753048e-03  0 
 8.985637e-04  -6.913810e-03  0 
 1.148942e-03  -7.029782e-03  0 
 1.414318e-03  -6.686904e-03  0 
 4.431232e-04  -8.650162e-03  0 
 1.849213e-05  -9.255373e-03  0 
 -6.347060e-04  -1.238382e-02  0 
VECTORS displacement_ITER28 FLOAT
 3.001334e-04  -6.416723e-03  0 
 1.393605e-03  -6.393966e-03  0 
 3.450154e-04  -5.198560e-03  0 
 3.333944e-04  -5.803552e-03  0 
 1.356456e-03  -5.813651e-03  0 
 5.304350e-04  -6.446279e-03  0 
 8.208763e-04  -6.439024e-03  0 
 1.131155e-03  -6.430124e-03  0 
 1.867057e-03  -6.336190e-03  0 
 1.459048e-03  -6.772548e-03  0 
 1.504165e-03  -7.140685e-03  0 
 -5.862566e-05  -5.843634e-03  0 
 4.911554e-04  -5.618597e-03  0 
 6.215775e-04  -5.986892e-03  0 
 8.838496e-04  -6.013950e-03  0 
 6.141313e-04  -5.610615e-03  0 
 1.017658e-03  -5.390856e-03  0 
 1.173494e-03  -6.009823e-03  0 
 4.505223e-04  -6.048649e-03  0 
 1.878555e-03  -5.998647e-03  0 
 1.210022e-03  -6.858936e-03  0 
 5.343320e-04  -6.665576e-03  0 