# vtk DataFile Version 3.1
this is an vtk file created by FEMAC
ASCII
DATASET UNSTRUCTURED_GRID
POINTS 31 FLOAT
5.000000 2.000000 0.000000
4.500000 2.000000 0.000000
4.750000 2.000000 0.000000
5.000000 1.500000 0.000000
5.000000 1.750000 0.000000
5.000000 2.250000 0.000000
5.000000 2.500000 0.000000
5.000000 2.750000 0.000000
5.250000 2.000000 0.000000
4.654136 1.816702 0.000000
4.789602 1.627399 0.000000
4.544074 1.619719 0.000000
4.840801 1.845599 0.000000
4.674167 2.178356 0.000000
4.500000 2.225000 0.000000
4.828194 2.341416 0.000000
4.808128 2.581646 0.000000
4.399662 2.398247 0.000000
4.630720 2.401594 0.000000
4.507893 2.661856 0.000000
4.761003 2.832250 0.000000
4.850472 2.153954 0.000000
5.194695 1.661595 0.000000
5.155217 1.845050 0.000000
5.325972 2.178472 0.000000
5.171968 2.341551 0.000000
5.216647 2.581177 0.000000
5.399662 2.398247 0.000000
5.507893 2.661856 0.000000
5.245757 2.832172 0.000000
5.149588 2.154005 0.000000
CELLS 43 172 
3 1 9 2
3 4 10  3
3 11 10  9
3 2 12  0
3 12  4  0
3 12  2  9
3 12 10  4
3 9 10 12
3 13  1  2
3 13 14  1
3 13 18 14
3 15  5  6
3 7 16  6
3 15 18 13
3 17 14 18
3 21  2  0
3 5 21  0
3 2 21 13
3 20 16  7
3 15 21  5
3 15 13 21
3 15  6 16
3 15 16 18
3 17 18 19
3 19 18 16
3 19 16 20
3 22  4  3
3 4 23  0
3 23  8  0
3 22 23  4
3 5 25  6
3 26  7  6
3 27 25 24
3 30  5  0
3 30  8 24
3 8 30  0
3 26 29  7
3 30 25  5
3 24 25 30
3 6 25 26
3 26 25 27
3 27 28 26
3 26 28 29
CELL_TYPES 43
5 5 5 5 5 5 5 5 5 5 5 5 5 5 5 5 5 5 5 5 5 5 5 5 5 5 5 5 5 5 5 5 5 5 5 5 5 5 5 5 5 5 5 
POINT_DATA 31
VECTORS displacement_ITER1 FLOAT
 -5.714973e-02  -3.101522e-01  0 
 -5.717244e-02  -2.816307e-01  0 
 -5.715962e-02  -2.958697e-01  0 
 -7.632520e-02  -3.103221e-01  0 
 -6.679610e-02  -3.102686e-01  0 
 -4.294817e-02  -3.101029e-01  0 
 -2.874036e-02  -3.101006e-01  0 
 -1.452260e-02  -3.101087e-01  0 
 -5.710694e-02  -3.199659e-01  0 
 -5.795334e-02  -2.801024e-01  0 
 -6.809137e-02  -2.948128e-01  0 
 -6.405980e-02  -2.458534e-01  0 
 -5.988608e-02  -2.976503e-01  0 
 -4.701210e-02  -2.915644e-01  0 
 -4.436225e-02  -2.816476e-01  0 
 -3.774968e-02  -3.003289e-01  0 
 -2.409854e-02  -2.991815e-01  0 
 -3.451695e-02  -2.759431e-01  0 
 -3.432759e-02  -2.890882e-01  0 
 -1.954179e-02  -2.820957e-01  0 
 -9.859475e-03  -2.965071e-01  0 
 -4.839395e-02  -3.016070e-01  0 
 -7.018298e-02  -3.177269e-01  0 
 -6.316549e-02  -3.162169e-01  0 
 -4.599691e-02  -3.404736e-01  0 
 -3.870837e-02  -3.281734e-01  0 
 -2.421001e-02  -3.362906e-01  0 
 -3.511760e-02  -3.546168e-01  0 
 -1.111674e-02  -3.855756e-01  0 
 1.939305e-03  -3.503812e-01  0 
 -5.019552e-02  -3.212564e-01  0 
VECTORS displacement_ITER2 FLOAT
 -1.741872e-02  -1.438048e-01  0 
 -1.744006e-02  -1.317230e-01  0 
 -1.743648e-02  -1.377297e-01  0 
 -5.339634e-02  -1.439803e-01  0 
 -3.539095e-02  -1.439285e-01  0 
 -1.149388e-02  -1.436783e-01  0 
 -5.592805e-03  -1.436268e-01  0 
 2.994536e-04  -1.436314e-01  0 
 -1.736208e-02  -1.619665e-01  0 
 -2.701307e-02  -1.281284e-01  0 
 -3.994960e-02  -1.368977e-01  0 
 -3.674647e-02  -1.181345e-01  0 
 -2.658823e-02  -1.375575e-01  0 
 -1.316385e-02  -1.359203e-01  0 
 -1.205914e-02  -1.317613e-01  0 
 -9.317082e-03  -1.395812e-01  0 
 -3.666059e-03  -1.390852e-01  0 
 -7.973343e-03  -1.294052e-01  0 
 -7.893581e-03  -1.348790e-01  0 
 -1.787037e-03  -1.319647e-01  0 
 2.228385e-03  -1.379867e-01  0 
 -1.374320e-02  -1.401517e-01  0 
 -4.177380e-02  -1.579621e-01  0 
 -2.858580e-02  -1.550635e-01  0 
 -1.711182e-02  -1.649929e-01  0 
 -1.157268e-02  -1.555439e-01  0 
 -5.409516e-03  -1.594973e-01  0 
 -1.216398e-02  -1.716671e-01  0 
 -4.282971e-04  -1.904416e-01  0 
 8.287651e-03  -1.674581e-01  0 
 -1.502217e-02  -1.549933e-01  0 
VECTORS displacement_ITER3 FLOAT
 -2.039108e-02  -5.189598e-02  0 
 -2.036582e-02  -4.571967e-02  0 
 -2.038664e-02  -4.873041e-02  0 
 -3.738193e-02  -5.232516e-02  0 
 -2.897170e-02  -5.219345e-02  0 
 -1.742948e-02  -5.168880e-02  0 
 -1.450124e-02  -5.161792e-02  0 
 -1.155831e-02  -5.161813e-02  0 
 -2.031601e-02  -6.082277e-02  0 
 -2.347764e-02  -4.461795e-02  0 
 -2.925009e-02  -4.923885e-02  0 
 -2.421000e-02  -4.084219e-02  0 
 -2.424500e-02  -4.864519e-02  0 
 -1.823504e-02  -4.780651e-02  0 
 -1.767955e-02  -4.571487e-02  0 
 -1.633555e-02  -4.962546e-02  0 
 -1.353872e-02  -4.934636e-02  0 
 -1.565005e-02  -4.453746e-02  0 
 -1.562327e-02  -4.725704e-02  0 
 -1.260535e-02  -4.575429e-02  0 
 -1.059885e-02  -4.879886e-02  0 
 -1.852321e-02  -4.995359e-02  0 
 -3.196962e-02  -5.878305e-02  0 
 -2.579349e-02  -5.742060e-02  0 
 -2.089819e-02  -6.147710e-02  0 
 -1.787579e-02  -5.747743e-02  0 
 -1.464322e-02  -6.002534e-02  0 
 -1.812874e-02  -6.570640e-02  0 
 -1.108259e-02  -7.831912e-02  0 
 -6.473297e-03  -6.550694e-02  0 
 -1.938513e-02  -5.737144e-02  0 
VECTORS displacement_ITER4 FLOAT
 -9.745439e-03  -2.153819e-02  0 
 -9.693040e-03  -1.829399e-02  0 
 -9.728781e-03  -1.982376e-02  0 
 -9.840908e-03  -2.206593e-02  0 
 -9.948806e-03  -2.190678e-02  0 
 -8.242019e-03  -2.131143e-02  0 
 -6.764528e-03  -2.124855e-02  0 
 -5.244007e-03  -2.126675e-02  0 
 -9.656830e-03  -2.215513e-02  0 
 -8.868775e-03  -1.976525e-02  0 
 -1.075475e-02  -2.223347e-02  0 
 -1.350587e-02  -1.359344e-02  0 
 -9.621699e-03  -2.099787e-02  0 
 -8.625627e-03  -1.933320e-02  0 
 -8.336781e-03  -1.825612e-02  0 
 -7.681019e-03  -2.024866e-02  0 
 -6.273479e-03  -2.008088e-02  0 
 -7.309943e-03  -1.764894e-02  0 
 -7.315111e-03  -1.902092e-02  0 
 -5.800071e-03  -1.819746e-02  0 
 -4.763567e-03  -1.980895e-02  0 
 -8.771454e-03  -2.045241e-02  0 
 -9.928518e-03  -2.186669e-02  0 
 -9.979249e-03  -2.189334e-02  0 
 -1.054625e-02  -2.409180e-02  0 
 -8.811020e-03  -2.333616e-02  0 
 -7.629667e-03  -2.473381e-02  0 
 -9.070814e-03  -2.671667e-02  0 
 -8.530181e-03  -3.069885e-02  0 
 -6.307786e-03  -2.524670e-02  0 
 -9.786846e-03  -2.290021e-02  0 
VECTORS displacement_ITER5 FLOAT
 -4.193852e-03  -1.119689e-02  0 
 -4.156986e-03  -8.740145e-03  0 
 -4.189958e-03  -9.878285e-03  0 
 -4.488923e-03  -1.171252e-02  0 
 -4.548822e-03  -1.155395e-02  0 
 -3.070754e-03  -1.100805e-02  0 
 -1.941718e-03  -1.096963e-02  0 
 -7.548406e-04  -1.099606e-02  0 
 -4.079103e-03  -1.197887e-02  0 
 -3.043596e-03  -1.021212e-02  0 
 -4.287142e-03  -1.247691e-02  0 
 -4.548939e-03  -7.206867e-03  0 
 -4.044039e-03  -1.081032e-02  0 
 -3.361660e-03  -9.503834e-03  0 
 -3.138459e-03  -8.678337e-03  0 
 -2.645776e-03  -1.019942e-02  0 
 -1.564509e-03  -1.006802e-02  0 
 -2.346714e-03  -8.196127e-03  0 
 -2.364234e-03  -9.248229e-03  0 
 -1.202506e-03  -8.580571e-03  0 
 -3.871450e-04  -9.874104e-03  0 
 -3.466010e-03  -1.036055e-02  0 
 -4.556735e-03  -1.157924e-02  0 
 -4.518682e-03  -1.163053e-02  0 
 -4.063286e-03  -1.342248e-02  0 
 -3.006006e-03  -1.233627e-02  0 
 -2.308372e-03  -1.251976e-02  0 
 -3.121787e-03  -1.430473e-02  0 
 -4.352519e-03  -1.383896e-02  0 
 -2.885748e-03  -1.033234e-02  0 
 -3.907555e-03  -1.212971e-02  0 
VECTORS displacement_ITER6 FLOAT
 -2.440163e-03  -7.821323e-03  0 
 -2.421960e-03  -6.286624e-03  0 
 -2.437931e-03  -6.973049e-03  0 
 -2.847559e-03  -8.237035e-03  0 
 -2.721251e-03  -8.104039e-03  0 
 -1.791821e-03  -7.616006e-03  0 
 -1.165136e-03  -7.546499e-03  0 
 -5.178209e-04  -7.536213e-03  0 
 -2.388882e-03  -8.404440e-03  0 
 -2.090892e-03  -6.830083e-03  0 
 -2.733546e-03  -7.559558e-03  0 
 -2.949020e-03  -5.137811e-03  0 
 -2.402288e-03  -7.370249e-03  0 
 -1.938942e-03  -6.750243e-03  0 
 -1.810853e-03  -6.264943e-03  0 
 -1.541247e-03  -7.140862e-03  0 
 -9.515279e-04  -7.041426e-03  0 
 -1.367858e-03  -5.995342e-03  0 
 -1.379591e-03  -6.589263e-03  0 
 -7.601087e-04  -6.206907e-03  0 
 -3.128319e-04  -6.934371e-03  0 
 -1.999273e-03  -7.264666e-03  0 
 -2.808098e-03  -8.280366e-03  0 
 -2.688883e-03  -8.189737e-03  0 
 -1.938718e-03  -9.799725e-03  0 
 -1.615527e-03  -8.858647e-03  0 
 -1.228473e-03  -9.226721e-03  0 
 -1.507585e-03  -1.046749e-02  0 
 -1.642209e-03  -1.143393e-02  0 
 -1.028972e-03  -8.868463e-03  0 
 -2.192246e-03  -8.479435e-03  0 
VECTORS displacement_ITER7 FLOAT
 -1.271341e-03  -6.404965e-03  0 
 -1.255240e-03  -5.301216e-03  0 
 -1.266993e-03  -5.787437e-03  0 
 -2.196590e-03  -6.743295e-03  0 
 -1.711978e-03  -6.622080e-03  0 
 -8.641093e-04  -6.178813e-03  0 
 -5.088913e-04  -6.100071e-03  0 
 -1.394861e-04  -6.113494e-03  0 
 -1.281928e-03  -7.029107e-03  0 
 -1.271325e-03  -5.710559e-03  0 
 -1.832069e-03  -6.471433e-03  0 
 -1.824674e-03  -5.046701e-03  0 
 -1.439325e-03  -6.147381e-03  0 
 -9.318805e-04  -5.640517e-03  0 
 -8.652336e-04  -5.340338e-03  0 
 -7.083987e-04  -5.879925e-03  0 
 -3.925817e-04  -5.809010e-03  0 
 -6.266589e-04  -5.220188e-03  0 
 -6.203404e-04  -5.551478e-03  0 
 -3.017864e-04  -5.346090e-03  0 
 -8.132501e-05  -5.768548e-03  0 
 -9.716567e-04  -5.982751e-03  0 
 -1.931940e-03  -7.067697e-03  0 
 -1.589666e-03  -6.854870e-03  0 
 -1.437009e-03  -7.904543e-03  0 
 -8.623224e-04  -6.862330e-03  0 
 -3.260532e-04  -6.859750e-03  0 
 -9.635278e-04  -8.100357e-03  0 
 3.052976e-04  -9.510823e-03  0 
 6.150325e-04  -6.903867e-03  0 
 -1.281580e-03  -6.930630e-03  0 
VECTORS displacement_ITER8 FLOAT
 -1.271490e-03  -6.065503e-03  0 
 -1.262120e-03  -4.934621e-03  0 
 -1.269180e-03  -5.427393e-03  0 
 -2.071463e-03  -6.411718e-03  0 
 -1.675865e-03  -6.289768e-03  0 
 -8.428489e-04  -5.840718e-03  0 
 -4.609974e-04  -5.751904e-03  0 
 -9.622148e-05  -5.738035e-03  0 
 -1.265911e-03  -6.688472e-03  0 
 -1.219803e-03  -5.374493e-03  0 
 -1.756123e-03  -6.080995e-03  0 
 -1.713458e-03  -4.833552e-03  0 
 -1.405632e-03  -5.787512e-03  0 
 -9.185161e-04  -5.274729e-03  0 
 -8.391439e-04  -4.949082e-03  0 
 -6.752570e-04  -5.524170e-03  0 
 -3.341627e-04  -5.448828e-03  0 
 -5.784541e-04  -4.788728e-03  0 
 -5.769731e-04  -5.170087e-03  0 
 -2.255894e-04  -4.946655e-03  0 
 8.665293e-06  -5.388941e-03  0 
 -9.597341e-04  -5.631591e-03  0 
 -1.858560e-03  -6.658813e-03  0 
 -1.569923e-03  -6.493966e-03  0 
 -1.995908e-03  -7.228248e-03  0 
 -9.734955e-04  -6.150520e-03  0 
 -1.412710e-04  -6.049919e-03  0 
 -1.207656e-03  -7.120417e-03  0 
 1.346987e-03  -8.983296e-03  0 
 1.296035e-03  -6.763693e-03  0 
 -1.428568e-03  -6.563814e-03  0 
VECTORS displacement_ITER9 FLOAT
 -1.244092e-03  -5.888772e-03  0 
 -1.230762e-03  -4.809705e-03  0 
 -1.241038e-03  -5.274962e-03  0 
 -2.051528e-03  -6.225039e-03  0 
 -1.670581e-03  -6.113431e-03  0 
 -8.391085e-04  -5.665677e-03  0 
 -4.793949e-04  -5.580387e-03  0 
 -1.368125e-04  -5.571928e-03  0 
 -1.237159e-03  -6.536524e-03  0 
 -1.406404e-03  -5.112698e-03  0 
 -1.759794e-03  -5.566673e-03  0 
 -1.618676e-03  -5.011002e-03  0 
 -1.433615e-03  -5.561238e-03  0 
 -9.089516e-04  -5.128287e-03  0 
 -8.332633e-04  -4.817456e-03  0 
 -6.805584e-04  -5.365326e-03  0 
 -3.614154e-04  -5.295486e-03  0 
 -5.932407e-04  -4.656752e-03  0 
 -5.885120e-04  -5.028104e-03  0 
 -2.664438e-04  -4.828469e-03  0 
 -3.837976e-05  -5.244494e-03  0 
 -9.474643e-04  -5.469377e-03  0 
 -1.839895e-03  -6.462030e-03  0 
 -1.556415e-03  -6.330835e-03  0 
 -2.094184e-03  -7.218164e-03  0 
 -1.001907e-03  -6.024201e-03  0 
 -7.450426e-05  -5.981663e-03  0 
 -1.234676e-03  -7.194986e-03  0 
 1.460458e-03  -8.510651e-03  0 
 9.665453e-04  -6.825688e-03  0 
 -1.468576e-03  -6.450274e-03  0 
VECTORS displacement_ITER10 FLOAT
 -1.203726e-03  -5.836699e-03  0 
 -1.180251e-03  -4.787889e-03  0 
 -1.198330e-03  -5.233988e-03  0 
 -2.054007e-03  -6.155963e-03  0 
 -1.645715e-03  -6.051217e-03  0 
 -8.075490e-04  -5.617905e-03  0 
 -4.505509e-04  -5.539882e-03  0 
 -1.004395e-04  -5.536025e-03  0 
 -1.204423e-03  -6.484448e-03  0 
 -1.431479e-03  -5.061892e-03  0 
 -1.748808e-03  -5.462447e-03  0 
 -1.579272e-03  -5.057097e-03  0 
 -1.419336e-03  -5.508009e-03  0 
 -8.778132e-04  -5.087708e-03  0 
 -8.043065e-04  -4.783667e-03  0 
 -6.524408e-04  -5.322682e-03  0 
 -3.328427e-04  -5.254482e-03  0 
 -5.666436e-04  -4.623004e-03  0 
 -5.620022e-04  -4.989149e-03  0 
 -2.384004e-04  -4.787861e-03  0 
 -1.501330e-06  -5.203263e-03  0 
 -9.141181e-04  -5.423576e-03  0 
 -1.822550e-03  -6.417029e-03  0 
 -1.521279e-03  -6.285157e-03  0 
 -2.050542e-03  -7.245798e-03  0 
 -9.484793e-04  -5.998750e-03  0 
 1.416090e-05  -5.975181e-03  0 
 -1.137337e-03  -7.276878e-03  0 
 1.521906e-03  -8.337297e-03  0 
 9.618991e-04  -6.775717e-03  0 
 -1.437850e-03  -6.410530e-03  0 
VECTORS displacement_ITER11 FLOAT
 -1.215350e-03  -5.833037e-03  0 
 -1.192306e-03  -4.776933e-03  0 
 -1.210095e-03  -5.226492e-03  0 
 -2.046322e-03  -6.160551e-03  0 
 -1.648448e-03  -6.052433e-03  0 
 -8.153285e-04  -5.614239e-03  0 
 -4.548081e-04  -5.535180e-03  0 
 -1.030909e-04  -5.529713e-03  0 
 -1.213082e-03  -6.477628e-03  0 
 -1.376445e-03  -5.106229e-03  0 
 -1.735745e-03  -5.541593e-03  0 
 -1.620664e-03  -4.924086e-03  0 
 -1.411107e-03  -5.519139e-03  0 
 -8.868284e-04  -5.079146e-03  0 
 -8.124761e-04  -4.771766e-03  0 
 -6.586267e-04  -5.316410e-03  0 
 -3.358621e-04  -5.247590e-03  0 
 -5.729352e-04  -4.610134e-03  0 
 -5.672150e-04  -4.980271e-03  0 
 -2.404490e-04  -4.779819e-03  0 
 -3.775965e-06  -5.195254e-03  0 
 -9.234254e-04  -5.417682e-03  0 
 -1.823484e-03  -6.413524e-03  0 
 -1.529546e-03  -6.277676e-03  0 
 -2.090251e-03  -7.175713e-03  0 
 -9.795753e-04  -5.974475e-03  0 
 2.895258e-05  -5.959335e-03  0 
 -1.167692e-03  -7.290768e-03  0 
 1.596908e-03  -8.336961e-03  0 
 7.543963e-04  -6.715470e-03  0 
 -1.452484e-03  -6.399920e-03  0 
VECTORS displacement_ITER12 FLOAT
 -1.215736e-03  -5.832416e-03  0 
 -1.192652e-03  -4.777380e-03  0 
 -1.210482e-03  -5.226360e-03  0 
 -2.047950e-03  -6.158970e-03  0 
 -1.648967e-03  -6.051001e-03  0 
 -8.161608e-04  -5.613724e-03  0 
 -4.559150e-04  -5.534853e-03  0 
 -1.039326e-04  -5.529865e-03  0 
 -1.214006e-03  -6.475906e-03  0 
 -1.387006e-03  -5.095773e-03  0 
 -1.737163e-03  -5.530261e-03  0 
 -1.613266e-03  -4.944759e-03  0 
 -1.414142e-03  -5.516267e-03  0 
 -8.875654e-04  -5.079129e-03  0 
 -8.132215e-04  -4.772077e-03  0 
 -6.596034e-04  -5.316123e-03  0 
 -3.370325e-04  -5.247232e-03  0 
 -5.733857e-04  -4.610058e-03  0 
 -5.681511e-04  -4.980045e-03  0 
 -2.415059e-04  -4.778861e-03  0 
 -3.896683e-06  -5.194600e-03  0 
 -9.241169e-04  -5.417366e-03  0 
 -1.824166e-03  -6.412307e-03  0 
 -1.529650e-03  -6.276839e-03  0 
 -2.083120e-03  -7.169185e-03  0 
 -9.831405e-04  -5.974986e-03  0 
 2.461488e-05  -5.953366e-03  0 
 -1.180728e-03  -7.282387e-03  0 
 1.601430e-03  -8.347279e-03  0 
 7.410236e-04  -6.708058e-03  0 
 -1.450132e-03  -6.397370e-03  0 
VECTORS displacement_ITER13 FLOAT
 -1.215088e-03  -5.832074e-03  0 
 -1.191972e-03  -4.777241e-03  0 
 -1.209830e-03  -5.226133e-03  0 
 -2.047369e-03  -6.158847e-03  0 
 -1.648477e-03  -6.050743e-03  0 
 -8.156264e-04  -5.613393e-03  0 
 -4.555002e-04  -5.534529e-03  0 
 -1.036610e-04  -5.529529e-03  0 
 -1.213329e-03  -6.475742e-03  0 
 -1.385271e-03  -5.096050e-03  0 
 -1.736458e-03  -5.531607e-03  0 
 -1.614626e-03  -4.943044e-03  0 
 -1.413263e-03  -5.516220e-03  0 
 -8.870121e-04  -5.078935e-03  0 
 -8.127406e-04  -4.772023e-03  0 
 -6.591156e-04  -5.315879e-03  0 
 -3.366600e-04  -5.247011e-03  0 
 -5.729152e-04  -4.610034e-03  0 
 -5.677076e-04  -4.979922e-03  0 
 -2.411189e-04  -4.778728e-03  0 
 -3.761392e-06  -5.194411e-03  0 
 -9.235442e-04  -5.417095e-03  0 
 -1.823714e-03  -6.412090e-03  0 
 -1.529128e-03  -6.276611e-03  0 
 -2.080444e-03  -7.171732e-03  0 
 -9.825624e-04  -5.975888e-03  0 
 2.392510e-05  -5.952142e-03  0 
 -1.183421e-03  -7.279083e-03  0 
 1.603569e-03  -8.348222e-03  0 
 7.405711e-04  -6.709910e-03  0 
 -1.449054e-03  -6.397467e-03  0 
VECTORS displacement_ITER14 FLOAT
 -1.215191e-03  -5.832141e-03  0 
 -1.192081e-03  -4.777261e-03  0 
 -1.209934e-03  -5.226168e-03  0 
 -2.047420e-03  -6.158889e-03  0 
 -1.648558e-03  -6.050831e-03  0 
 -8.156965e-04  -5.613459e-03  0 
 -4.555443e-04  -5.534581e-03  0 
 -1.036899e-04  -5.529569e-03  0 
 -1.213429e-03  -6.475791e-03  0 
 -1.385420e-03  -5.096104e-03  0 
 -1.736494e-03  -5.531863e-03  0 
 -1.614738e-03  -4.942687e-03  0 
 -1.413392e-03  -5.516324e-03  0 
 -8.870931e-04  -5.078961e-03  0 
 -8.128045e-04  -4.772006e-03  0 
 -6.591713e-04  -5.315922e-03  0 
 -3.366939e-04  -5.247045e-03  0 
 -5.729661e-04  -4.610048e-03  0 
 -5.677505e-04  -4.979939e-03  0 
 -2.411590e-04  -4.778756e-03  0 
 -3.786267e-06  -5.194449e-03  0 
 -9.236274e-04  -5.417143e-03  0 
 -1.823766e-03  -6.412146e-03  0 
 -1.529230e-03  -6.276678e-03  0 
 -2.080450e-03  -7.171123e-03  0 
 -9.827318e-04  -5.975869e-03  0 
 2.383222e-05  -5.952419e-03  0 
 -1.183508e-03  -7.278899e-03  0 
 1.603717e-03  -8.348192e-03  0 
 7.410143e-04  -6.711273e-03  0 
 -1.449056e-03  -6.397411e-03  0 
CELL_DATA 43
TENSORS element_stresses FLOAT
 -2.806545e-06  -6.160784e-04  0 
 -6.160784e-04  2.286881e-04  0 
 0  0  0 

 -4.198442e-04  -8.638606e-04  0 
 -8.638606e-04  3.062783e-04  0 
 0  0  0 

 -4.068104e-04  -7.312664e-04  0 
 -7.312664e-04  4.498876e-04  0 
 0  0  0 

 1.264912e-04  -8.604107e-04  0 
 -8.604107e-04  4.917270e-04  0 
 0  0  0 

 -1.909981e-04  -8.451653e-04  0 
 -8.451653e-04  8.174611e-04  0 
 0  0  0 

 -1.885891e-04  -9.253822e-04  0 
 -9.253822e-04  4.524226e-04  0 
 0  0  0 

 -3.181183e-04  -1.002806e-03  0 
 -1.002806e-03  6.574985e-04  0 
 0  0  0 

 -2.272088e-04  -5.957117e-04  0 
 -5.957117e-04  5.538758e-04  0 
 0  0  0 

 -5.807240e-02  -1.223548e-02  0 
 -1.223548e-02  4.446859e-02  0 
 0  0  0 

 3.506403e-02  -5.422665e-02  0 
 -5.422665e-02  3.387239e-02  0 
 0  0  0 

 -1.537592e-02  -2.403243e-01  0 
 -2.403243e-01  1.014905e-01  0 
 0  0  0 

 -5.480544e-02  -9.487358e-02  0 
 -9.487358e-02  2.990728e-01  0 
 0  0  0 

 -1.595830e-02  -6.356542e-02  0 
 -6.356542e-02  1.526092e-02  0 
 0  0  0 

 7.847035e-03  -1.846647e-01  0 
 -1.846647e-01  1.218918e-01  0 
 0  0  0 

 5.257343e-03  -1.654988e-01  0 
 -1.654988e-01  9.199323e-03  0 
 0  0  0 

 8.944085e-02  -4.234495e-01  0 
 -4.234495e-01  3.682259e-01  0 
 0  0  0 

 -4.636485e-02  -2.129166e-01  0 
 -2.129166e-01  8.608170e-01  0 
 0  0  0 

 5.399792e-02  -6.697209e-02  0 
 -6.697209e-02  2.660659e-02  0 
 0  0  0 

 2.704873e-02  -6.592213e-02  0 
 -6.592213e-02  -4.940582e-02  0 
 0  0  0 

 -7.060210e-02  -1.166603e-01  0 
 -1.166603e-01  3.355218e-01  0 
 0  0  0 

 9.120769e-02  -3.576734e-01  0 
 -3.576734e-01  3.445835e-01  0 
 0  0  0 

 2.792882e-04  -6.855307e-02  0 
 -6.855307e-02  1.675745e-01  0 
 0  0  0 

 -1.183565e-02  -2.449526e-01  0 
 -2.449526e-01  1.448220e-01  0 
 0  0  0 

 1.052518e-02  -2.647602e-01  0 
 -2.647602e-01  2.053470e-02  0 
 0  0  0 

 3.535340e-02  -2.187661e-01  0 
 -2.187661e-01  5.282943e-02  0 
 0  0  0 

 1.350359e-02  -1.904002e-01  0 
 -1.904002e-01  -8.378464e-02  0 
 0  0  0 

 -5.032825e-02  -4.930196e-02  0 
 -4.930196e-02  4.171330e-01  0 
 0  0  0 

 -3.330262e-02  -1.978749e-01  0 
 -1.978749e-01  8.647698e-01  0 
 0  0  0 

 1.033012e-01  -4.160274e-01  0 
 -4.160274e-01  3.208519e-01  0 
 0  0  0 

 -8.425272e-02  -9.263144e-02  0 
 -9.263144e-02  3.505260e-01  0 
 0  0  0 

 -1.806160e-03  -6.421489e-04  0 
 -6.421489e-04  -2.263337e-04  0 
 0  0  0 

 1.858642e-03  -4.067308e-04  0 
 -4.067308e-04  5.776411e-04  0 
 0  0  0 

 -1.761917e-03  -1.027116e-03  0 
 -1.027116e-03  1.029953e-03  0 
 0  0  0 

 -3.237514e-03  -2.370324e-03  0 
 -2.370324e-03  -9.652776e-05  0 
 0  0  0 

 -4.104323e-03  -5.869918e-03  0 
 -5.869918e-03  -3.387379e-03  0 
 0  0  0 

 -3.778758e-04  -3.153850e-03  0 
 -3.153850e-03  -1.283071e-03  0 
 0  0  0 

 1.991564e-03  -1.071389e-03  0 
 -1.071389e-03  -1.967724e-03  0 
 0  0  0 

 -1.813322e-03  -5.763630e-04  0 
 -5.763630e-04  2.124681e-03  0 
 0  0  0 

 -3.456370e-03  -1.395954e-03  0 
 -1.395954e-03  1.780834e-03  0 
 0  0  0 

 9.168128e-04  1.507363e-03  0 
 1.507363e-03  7.668780e-04  0 
 0  0  0 

 -1.818796e-03  -1.114924e-03  0 
 -1.114924e-03  6.759798e-04  0 
 0  0  0 

 2.841794e-03  1.079594e-03  0 
 1.079594e-03  8.640446e-05  0 
 0  0  0 

 4.555410e-03  -4.101149e-03  0 
 -4.101149e-03  -7.714372e-04  0 
 0  0  0 

TENSORS element_stresses FLOAT
 -2.806545e-06  -6.160784e-04  0 
 -6.160784e-04  2.286881e-04  0 
 0  0  0 

 -4.198442e-04  -8.638606e-04  0 
 -8.638606e-04  3.062783e-04  0 
 0  0  0 

 -4.068104e-04  -7.312664e-04  0 
 -7.312664e-04  4.498876e-04  0 
 0  0  0 

 1.264912e-04  -8.604107e-04  0 
 -8.604107e-04  4.917270e-04  0 
 0  0  0 

 -1.909981e-04  -8.451653e-04  0 
 -8.451653e-04  8.174611e-04  0 
 0  0  0 

 -1.885891e-04  -9.253822e-04  0 
 -9.253822e-04  4.524226e-04  0 
 0  0  0 

 -3.181183e-04  -1.002806e-03  0 
 -1.002806e-03  6.574985e-04  0 
 0  0  0 

 -2.272088e-04  -5.957117e-04  0 
 -5.957117e-04  5.538758e-04  0 
 0  0  0 

 -5.807240e-02  -1.223548e-02  0 
 -1.223548e-02  4.446859e-02  0 
 0  0  0 

 3.506403e-02  -5.422665e-02  0 
 -5.422665e-02  3.387239e-02  0 
 0  0  0 

 -1.537592e-02  -2.403243e-01  0 
 -2.403243e-01  1.014905e-01  0 
 0  0  0 

 -5.480544e-02  -9.487358e-02  0 
 -9.487358e-02  2.990728e-01  0 
 0  0  0 

 -1.595830e-02  -6.356542e-02  0 
 -6.356542e-02  1.526092e-02  0 
 0  0  0 

 7.847035e-03  -1.846647e-01  0 
 -1.846647e-01  1.218918e-01  0 
 0  0  0 

 5.257343e-03  -1.654988e-01  0 
 -1.654988e-01  9.199323e-03  0 
 0  0  0 

 8.944085e-02  -4.234495e-01  0 
 -4.234495e-01  3.682259e-01  0 
 0  0  0 

 -4.636485e-02  -2.129166e-01  0 
 -2.129166e-01  8.608170e-01  0 
 0  0  0 

 5.399792e-02  -6.697209e-02  0 
 -6.697209e-02  2.660659e-02  0 
 0  0  0 

 2.704873e-02  -6.592213e-02  0 
 -6.592213e-02  -4.940582e-02  0 
 0  0  0 

 -7.060210e-02  -1.166603e-01  0 
 -1.166603e-01  3.355218e-01  0 
 0  0  0 

 9.120769e-02  -3.576734e-01  0 
 -3.576734e-01  3.445835e-01  0 
 0  0  0 

 2.792882e-04  -6.855307e-02  0 
 -6.855307e-02  1.675745e-01  0 
 0  0  0 

 -1.183565e-02  -2.449526e-01  0 
 -2.449526e-01  1.448220e-01  0 
 0  0  0 

 1.052518e-02  -2.647602e-01  0 
 -2.647602e-01  2.053470e-02  0 
 0  0  0 

 3.535340e-02  -2.187661e-01  0 
 -2.187661e-01  5.282943e-02  0 
 0  0  0 

 1.350359e-02  -1.904002e-01  0 
 -1.904002e-01  -8.378464e-02  0 
 0  0  0 

 -5.032825e-02  -4.930196e-02  0 
 -4.930196e-02  4.171330e-01  0 
 0  0  0 

 -3.330262e-02  -1.978749e-01  0 
 -1.978749e-01  8.647698e-01  0 
 0  0  0 

 1.033012e-01  -4.160274e-01  0 
 -4.160274e-01  3.208519e-01  0 
 0  0  0 

 -8.425272e-02  -9.263144e-02  0 
 -9.263144e-02  3.505260e-01  0 
 0  0  0 

 -1.806160e-03  -6.421489e-04  0 
 -6.421489e-04  -2.263337e-04  0 
 0  0  0 

 1.858642e-03  -4.067308e-04  0 
 -4.067308e-04  5.776411e-04  0 
 0  0  0 

 -1.761917e-03  -1.027116e-03  0 
 -1.027116e-03  1.029953e-03  0 
 0  0  0 

 -3.237514e-03  -2.370324e-03  0 
 -2.370324e-03  -9.652776e-05  0 
 0  0  0 

 -4.104323e-03  -5.869918e-03  0 
 -5.869918e-03  -3.387379e-03  0 
 0  0  0 

 -3.778758e-04  -3.153850e-03  0 
 -3.153850e-03  -1.283071e-03  0 
 0  0  0 

 1.991564e-03  -1.071389e-03  0 
 -1.071389e-03  -1.967724e-03  0 
 0  0  0 

 -1.813322e-03  -5.763630e-04  0 
 -5.763630e-04  2.124681e-03  0 
 0  0  0 

 -3.456370e-03  -1.395954e-03  0 
 -1.395954e-03  1.780834e-03  0 
 0  0  0 

 9.168128e-04  1.507363e-03  0 
 1.507363e-03  7.668780e-04  0 
 0  0  0 

 -1.818796e-03  -1.114924e-03  0 
 -1.114924e-03  6.759798e-04  0 
 0  0  0 

 2.841794e-03  1.079594e-03  0 
 1.079594e-03  8.640446e-05  0 
 0  0  0 

 4.555410e-03  -4.101149e-03  0 
 -4.101149e-03  -7.714372e-04  0 
 0  0  0 

