# vtk DataFile Version 3.1
this is an vtk file created by FEMAC
ASCII
DATASET UNSTRUCTURED_GRID
POINTS 33 FLOAT
5.000000 0.000000 0.000000
6.000000 0.000000 0.000000
6.000000 1.000000 0.000000
4.750000 0.000000 0.000000
5.250000 0.000000 0.000000
5.500000 0.000000 0.000000
5.750000 0.000000 0.000000
5.000000 0.250000 0.000000
5.000000 0.500000 0.000000
5.500000 1.000000 0.000000
5.750000 1.000000 0.000000
6.000000 0.250000 0.000000
6.000000 0.500000 0.000000
6.000000 0.750000 0.000000
6.000000 1.250000 0.000000
6.000000 1.500000 0.000000
4.828307 0.162952 0.000000
4.746177 0.372389 0.000000
5.462570 0.272476 0.000000
5.214699 0.660302 0.000000
5.787596 0.660045 0.000000
5.828307 0.162952 0.000000
5.638134 0.825570 0.000000
5.371728 0.825957 0.000000
5.502535 0.594871 0.000000
5.217467 0.400442 0.000000
5.746177 0.372389 0.000000
5.660592 0.165804 0.000000
5.835146 0.847123 0.000000
5.238340 0.153820 0.000000
5.805000 1.255000 0.000000
5.565925 1.242859 0.000000
5.717271 1.453287 0.000000
CELLS 43 172 
3 16  3  0
3 7 16  0
3 17  7  8
3 16  7 17
3 20 12 13
3 21  6  1
3 11 21  1
3 9 23 22
3 24 20 22
3 25 19  8
3 20 26 12
3 24 25 18
3 24 19 25
3 26 24 18
3 20 24 26
3 22 10  9
3 7 25  8
3 26 11 12
3 21 11 26
3 24 23 19
3 22 23 24
3 21 27  6
3 10 28  2
3 13 28 20
3 28 13  2
3 27 26 18
3 21 26 27
3 22 28 10
3 22 20 28
3 27  5  6
3 5 27 18
3 4 29  0
3 29  7  0
3 5 29  4
3 25 29 18
3 29 25  7
3 5 18 29
3 15 30 14
3 32 31 30
3 30 31 10
3 15 32 30
3 2 30 10
3 2 14 30
CELL_TYPES 43
5 5 5 5 5 5 5 5 5 5 5 5 5 5 5 5 5 5 5 5 5 5 5 5 5 5 5 5 5 5 5 5 5 5 5 5 5 5 5 5 5 5 5 
POINT_DATA 33
VECTORS displacement_ITER1 FLOAT
 -2.116594e-01  -3.233573e-01  0 
 -2.438228e-01  -4.913113e-01  0 
 -1.304608e-01  -4.173926e-01  0 
 -2.116439e-01  -2.953276e-01  0 
 -2.216049e-01  -3.622839e-01  0 
 -2.297894e-01  -3.991400e-01  0 
 -2.380836e-01  -4.409689e-01  0 
 -1.836330e-01  -3.233356e-01  0 
 -1.556300e-01  -3.233238e-01  0 
 -1.235775e-01  -3.791022e-01  0 
 -1.304470e-01  -3.942356e-01  0 
 -2.011047e-01  -4.804715e-01  0 
 -1.700214e-01  -4.623668e-01  0 
 -1.499178e-01  -4.395872e-01  0 
 -1.073180e-01  -4.173672e-01  0 
 -8.418092e-02  -4.173419e-01  0 
 -1.933824e-01  -3.040974e-01  0 
 -1.699157e-01  -2.948937e-01  0 
 -1.875584e-01  -3.862996e-01  0 
 -1.411458e-01  -3.501068e-01  0 
 -1.482557e-01  -4.206396e-01  0 
 -2.117426e-01  -4.509249e-01  0 
 -1.321548e-01  -3.956913e-01  0 
 -1.289839e-01  -3.692567e-01  0 
 -1.488281e-01  -3.868932e-01  0 
 -1.685431e-01  -3.507099e-01  0 
 -1.781903e-01  -4.285655e-01  0 
 -2.078060e-01  -4.206635e-01  0 
 -1.369572e-01  -4.109025e-01  0 
 -1.991112e-01  -3.552447e-01  0 
 -1.068462e-01  -3.993073e-01  0 
 -1.079616e-01  -3.771674e-01  0 
 -8.849161e-02  -3.911676e-01  0 
VECTORS displacement_ITER2 FLOAT
 -1.373259e-01  -2.926518e-01  0 
 -1.805939e-01  -3.681965e-01  0 
 -1.170349e-01  -3.529644e-01  0 
 -1.373045e-01  -2.928034e-01  0 
 -1.519194e-01  -3.069625e-01  0 
 -1.641590e-01  -3.203830e-01  0 
 -1.743947e-01  -3.399316e-01  0 
 -1.374756e-01  -2.926199e-01  0 
 -1.376483e-01  -2.926023e-01  0 
 -1.245163e-01  -2.843966e-01  0 
 -1.170276e-01  -2.768364e-01  0 
 -1.600168e-01  -3.582788e-01  0 
 -1.503995e-01  -3.444867e-01  0 
 -1.453516e-01  -3.347228e-01  0 
 -4.088636e-02  -3.529611e-01  0 
 3.526516e-02  -3.529483e-01  0 
 -1.374115e-01  -2.927399e-01  0 
 -1.375538e-01  -2.927941e-01  0 
 -1.471325e-01  -3.070321e-01  0 
 -1.325679e-01  -2.880204e-01  0 
 -1.421383e-01  -3.188815e-01  0 
 -1.630393e-01  -3.427712e-01  0 
 -1.282802e-01  -2.915742e-01  0 
 -1.265052e-01  -2.874436e-01  0 
 -1.357322e-01  -2.995369e-01  0 
 -1.387006e-01  -2.924771e-01  0 
 -1.488389e-01  -3.277466e-01  0 
 -1.590742e-01  -3.266986e-01  0 
 -1.388846e-01  -3.101660e-01  0 
 -1.443564e-01  -2.982304e-01  0 
 -3.936098e-02  -2.935582e-01  0 
 -4.304421e-02  -2.207161e-01  0 
 2.105120e-02  -2.668070e-01  0 
VECTORS displacement_ITER3 FLOAT
 -1.236608e-01  -1.384655e-01  0 
 -1.520723e-01  -3.225384e-01  0 
 -3.999311e-02  -1.952023e-01  0 
 -1.236468e-01  -1.060807e-01  0 
 -1.316491e-01  -1.799841e-01  0 
 -1.383911e-01  -2.200500e-01  0 
 -1.464347e-01  -2.667304e-01  0 
 -9.127455e-02  -1.384504e-01  0 
 -5.889956e-02  -1.384383e-01  0 
 -2.056955e-02  -2.106153e-01  0 
 -3.997142e-02  -2.419032e-01  0 
 -1.037119e-01  -3.116404e-01  0 
 -6.621882e-02  -2.921057e-01  0 
 -4.248864e-02  -2.611789e-01  0 
 -8.675166e-02  -1.951507e-01  0 
 -1.335307e-01  -1.951128e-01  0 
 -1.025447e-01  -1.162142e-01  0 
 -7.541727e-02  -1.055712e-01  0 
 -9.174659e-02  -2.087627e-01  0 
 -3.970456e-02  -1.728897e-01  0 
 -4.053564e-02  -2.471072e-01  0 
 -1.164328e-01  -2.785107e-01  0 
 -2.936265e-02  -2.325213e-01  0 
 -2.601719e-02  -1.976463e-01  0 
 -4.677720e-02  -2.148221e-01  0 
 -7.267284e-02  -1.706738e-01  0 
 -7.767563e-02  -2.544192e-01  0 
 -1.126824e-01  -2.446963e-01  0 
 -2.616706e-02  -2.358525e-01  0 
 -1.070862e-01  -1.737646e-01  0 
 -8.767021e-02  -2.316127e-01  0 
 -8.539892e-02  -2.763377e-01  0 
 -1.247873e-01  -2.480247e-01  0 
VECTORS displacement_ITER4 FLOAT
 -9.828549e-02  -1.573901e-01  0 
 -1.422524e-01  -2.244343e-01  0 
 -8.869987e-02  -1.846919e-01  0 
 -9.826334e-02  -1.612741e-01  0 
 -1.129609e-01  -1.680941e-01  0 
 -1.253695e-01  -1.786269e-01  0 
 -1.359988e-01  -1.969025e-01  0 
 -1.021635e-01  -1.573593e-01  0 
 -1.060583e-01  -1.573403e-01  0 
 -9.177806e-02  -1.474018e-01  0 
 -8.868873e-02  -1.473175e-01  0 
 -1.222932e-01  -2.147468e-01  0 
 -1.125484e-01  -2.011103e-01  0 
 -1.075266e-01  -1.890869e-01  0 
 -5.132982e-02  -1.846742e-01  0 
 -1.396667e-02  -1.846545e-01  0 
 -1.008019e-01  -1.600398e-01  0 
 -1.040647e-01  -1.613154e-01  0 
 -1.107169e-01  -1.660907e-01  0 
 -9.936434e-02  -1.514533e-01  0 
 -1.043580e-01  -1.765405e-01  0 
 -1.252229e-01  -1.995462e-01  0 
 -9.435419e-02  -1.560044e-01  0 
 -9.320350e-02  -1.507777e-01  0 
 -1.007368e-01  -1.609651e-01  0 
 -1.047255e-01  -1.543465e-01  0 
 -1.114134e-01  -1.848624e-01  0 
 -1.213847e-01  -1.838633e-01  0 
 -9.985457e-02  -1.676418e-01  0 
 -1.073063e-01  -1.593427e-01  0 
 -5.057564e-02  -1.555184e-01  0 
 -5.238037e-02  -1.197709e-01  0 
 -2.094029e-02  -1.423906e-01  0 
VECTORS displacement_ITER5 FLOAT
 -7.697767e-02  -9.325858e-02  0 
 -1.147798e-01  -1.958527e-01  0 
 -5.064111e-02  -1.144356e-01  0 
 -7.696025e-02  -8.574761e-02  0 
 -8.903377e-02  -1.134465e-01  0 
 -9.914640e-02  -1.328752e-01  0 
 -1.087629e-01  -1.597326e-01  0 
 -6.946548e-02  -9.323169e-02  0 
 -6.197814e-02  -9.321351e-02  0 
 -4.612205e-02  -1.129444e-01  0 
 -5.062587e-02  -1.260467e-01  0 
 -8.616274e-02  -1.857026e-01  0 
 -6.789516e-02  -1.697105e-01  0 
 -5.741592e-02  -1.501630e-01  0 
 -6.228750e-02  -1.143998e-01  0 
 -7.395113e-02  -1.143703e-01  0 
 -7.207087e-02  -8.808708e-02  0 
 -6.579168e-02  -8.562351e-02  0 
 -7.483402e-02  -1.214254e-01  0 
 -5.256011e-02  -1.021106e-01  0 
 -5.440003e-02  -1.393630e-01  0 
 -9.207872e-02  -1.651739e-01  0 
 -4.721148e-02  -1.247678e-01  0 
 -4.583236e-02  -1.107022e-01  0 
 -5.471737e-02  -1.209714e-01  0 
 -6.537710e-02  -1.021205e-01  0 
 -7.051919e-02  -1.475894e-01  0 
 -8.830917e-02  -1.440634e-01  0 
 -4.704246e-02  -1.300418e-01  0 
 -7.764606e-02  -1.058457e-01  0 
 -6.250815e-02  -1.234768e-01  0 
 -6.193879e-02  -1.346152e-01  0 
 -7.176937e-02  -1.275647e-01  0 
VECTORS displacement_ITER6 FLOAT
 -6.065318e-02  -8.260794e-02  0 
 -1.021873e-01  -1.477625e-01  0 
 -5.641871e-02  -9.604052e-02  0 
 -6.063630e-02  -8.545638e-02  0 
 -7.420317e-02  -9.323706e-02  0 
 -8.572969e-02  -1.034468e-01  0 
 -9.598337e-02  -1.210264e-01  0 
 -6.350234e-02  -8.257578e-02  0 
 -6.638898e-02  -8.255276e-02  0 
 -6.075002e-02  -7.547116e-02  0 
 -5.640720e-02  -7.797043e-02  0 
 -8.300603e-02  -1.379162e-01  0 
 -7.401911e-02  -1.236971e-01  0 
 -6.939486e-02  -1.104644e-01  0 
 -3.836552e-02  -9.601597e-02  0 
 -2.032515e-02  -9.599176e-02  0 
 -6.249866e-02  -8.455187e-02  0 
 -6.490520e-02  -8.549976e-02  0 
 -7.151612e-02  -9.168450e-02  0 
 -6.211332e-02  -7.839313e-02  0 
 -6.609374e-02  -9.972094e-02  0 
 -8.562628e-02  -1.234095e-01  0 
 -5.903883e-02  -8.246048e-02  0 
 -5.835376e-02  -7.863570e-02  0 
 -6.271015e-02  -8.672646e-02  0 
 -6.571675e-02  -8.066589e-02  0 
 -7.231424e-02  -1.088031e-01  0 
 -8.177422e-02  -1.083891e-01  0 
 -6.180070e-02  -9.127358e-02  0 
 -6.856530e-02  -8.513833e-02  0 
 -3.799532e-02  -8.192845e-02  0 
 -3.886503e-02  -6.465826e-02  0 
 -2.369178e-02  -7.558862e-02  0 
VECTORS displacement_ITER7 FLOAT
 -5.231202e-02  -4.993360e-02  0 
 -8.876345e-02  -1.371948e-01  0 
 -3.269462e-02  -6.475840e-02  0 
 -5.230096e-02  -4.417373e-02  0 
 -6.342579e-02  -6.645734e-02  0 
 -7.318021e-02  -8.242341e-02  0 
 -8.269393e-02  -1.052905e-01  0 
 -4.655665e-02  -4.990548e-02  0 
 -4.084883e-02  -4.987973e-02  0 
 -3.291941e-02  -5.804039e-02  0 
 -3.268024e-02  -6.673028e-02  0 
 -6.437862e-02  -1.270201e-01  0 
 -5.022868e-02  -1.114127e-01  0 
 -4.187208e-02  -9.381859e-02  0 
 -3.469607e-02  -6.472454e-02  0 
 -3.671432e-02  -6.469418e-02  0 
 -4.855078e-02  -4.597100e-02  0 
 -4.374796e-02  -4.409699e-02  0 
 -5.269769e-02  -7.125395e-02  0 
 -3.511041e-02  -5.321952e-02  0 
 -3.865027e-02  -8.321248e-02  0 
 -6.875711e-02  -1.093178e-01  0 
 -3.159140e-02  -6.736332e-02  0 
 -3.042671e-02  -5.817879e-02  0 
 -3.705107e-02  -6.766948e-02  0 
 -4.392272e-02  -5.522731e-02  0 
 -5.077427e-02  -9.280744e-02  0 
 -6.487687e-02  -9.107747e-02  0 
 -3.227154e-02  -7.388482e-02  0 
 -5.386604e-02  -5.938326e-02  0 
 -3.472405e-02  -6.627952e-02  0 
 -3.462186e-02  -6.819288e-02  0 
 -3.633428e-02  -6.698198e-02  0 
VECTORS displacement_ITER8 FLOAT
 -5.134653e-02  -4.366639e-02  0 
 -8.828734e-02  -1.216373e-01  0 
 -3.608932e-02  -5.646175e-02  0 
 -5.133658e-02  -4.007651e-02  0 
 -6.254950e-02  -5.773289e-02  0 
 -7.252590e-02  -7.143359e-02  0 
 -8.216975e-02  -9.203323e-02  0 
 -4.776175e-02  -4.363732e-02  0 
 -4.422944e-02  -4.360885e-02  0 
 -3.835821e-02  -4.483764e-02  0 
 -3.607539e-02  -4.988028e-02  0 
 -6.621080e-02  -1.115301e-01  0 
 -5.427832e-02  -9.635064e-02  0 
 -4.735228e-02  -8.006281e-02  0 
 -2.953193e-02  -5.643017e-02  0 
 -2.299003e-02  -5.640034e-02  0 
 -4.900007e-02  -4.119500e-02  0 
 -4.601648e-02  -4.003646e-02  0 
 -5.446933e-02  -6.022639e-02  0 
 -3.973887e-02  -4.339475e-02  0 
 -4.391596e-02  -6.954093e-02  0 
 -6.977904e-02  -9.530339e-02  0 
 -3.652380e-02  -5.274098e-02  0 
 -3.560207e-02  -4.615874e-02  0 
 -4.138601e-02  -5.525076e-02  0 
 -4.644761e-02  -4.623079e-02  0 
 -5.380056e-02  -7.948619e-02  0 
 -6.586790e-02  -7.856662e-02  0 
 -3.826877e-02  -6.001835e-02  0 
 -5.434035e-02  -5.064562e-02  0 
 -2.938932e-02  -5.130959e-02  0 
 -2.970140e-02  -4.503638e-02  0 
 -2.420855e-02  -4.900624e-02  0 
VECTORS displacement_ITER9 FLOAT
 -3.844122e-02  -2.818783e-02  0 
 -7.469021e-02  -1.114650e-01  0 
 -2.127743e-02  -4.033502e-02  0 
 -3.843186e-02  -2.315028e-02  0 
 -4.939074e-02  -4.365571e-02  0 
 -5.909462e-02  -5.864764e-02  0 
 -6.860960e-02  -8.054479e-02  0 
 -3.340961e-02  -2.815819e-02  0 
 -2.843381e-02  -2.812824e-02  0 
 -2.228553e-02  -3.507292e-02  0 
 -2.126267e-02  -4.003996e-02  0 
 -5.128650e-02  -1.012972e-01  0 
 -3.803074e-02  -8.577225e-02  0 
 -3.066537e-02  -6.809730e-02  0 
 -2.100988e-02  -4.030106e-02  0 
 -2.075866e-02  -4.026981e-02  0 
 -3.515136e-02  -2.472252e-02  0 
 -3.095597e-02  -2.308844e-02  0 
 -3.962800e-02  -4.759343e-02  0 
 -2.361351e-02  -3.045320e-02  0 
 -2.695069e-02  -5.823691e-02  0 
 -5.531876e-02  -8.425031e-02  0 
 -1.995005e-02  -4.244796e-02  0 
 -1.939998e-02  -3.489670e-02  0 
 -2.507878e-02  -4.348296e-02  0 
 -3.120247e-02  -3.252378e-02  0 
 -3.816193e-02  -6.802031e-02  0 
 -5.142975e-02  -6.667262e-02  0 
 -2.129717e-02  -4.828494e-02  0 
 -4.038211e-02  -3.668193e-02  0 
 -2.099236e-02  -4.008639e-02  0 
 -2.099959e-02  -3.982972e-02  0 
 -2.080274e-02  -3.999198e-02  0 
VECTORS displacement_ITER10 FLOAT
 -3.192042e-02  -2.619405e-02  0 
 -6.956354e-02  -1.018288e-01  0 
 -2.272125e-02  -3.516451e-02  0 
 -3.190985e-02  -2.406655e-02  0 
 -4.363217e-02  -3.983089e-02  0 
 -5.379163e-02  -5.285545e-02  0 
 -6.346033e-02  -7.282230e-02  0 
 -2.979935e-02  -2.616100e-02  0 
 -2.773747e-02  -2.612950e-02  0 
 -2.482246e-02  -3.037168e-02  0 
 -2.270739e-02  -3.179255e-02  0 
 -4.808535e-02  -9.172489e-02  0 
 -3.676062e-02  -7.647808e-02  0 
 -3.139893e-02  -5.962153e-02  0 
 -1.937405e-02  -3.513334e-02  0 
 -1.604178e-02  -3.510430e-02  0 
 -3.052614e-02  -2.472590e-02  0 
 -2.877121e-02  -2.404739e-02  0 
 -3.654568e-02  -4.178905e-02  0 
 -2.423684e-02  -2.700138e-02  0 
 -2.717561e-02  -5.081155e-02  0 
 -5.145885e-02  -7.592930e-02  0 
 -2.109111e-02  -3.565677e-02  0 
 -2.112455e-02  -3.049522e-02  0 
 -2.478075e-02  -3.755306e-02  0 
 -2.930122e-02  -2.857697e-02  0 
 -3.599180e-02  -6.039854e-02  0 
 -4.759326e-02  -5.958255e-02  0 
 -2.306208e-02  -4.089067e-02  0 
 -3.597206e-02  -3.259573e-02  0 
 -1.929588e-02  -3.251634e-02  0 
 -1.945261e-02  -2.931343e-02  0 
 -1.666259e-02  -3.134134e-02  0 
VECTORS displacement_ITER11 FLOAT
 -2.528023e-02  -1.955737e-02  0 
 -6.293298e-02  -9.643866e-02  0 
 -1.703147e-02  -2.834321e-02  0 
 -2.526966e-02  -1.729031e-02  0 
 -3.708237e-02  -3.364249e-02  0 
 -4.721768e-02  -4.697260e-02  0 
 -5.684513e-02  -6.718759e-02  0 
 -2.302044e-02  -1.952258e-02  0 
 -2.082273e-02  -1.948999e-02  0 
 -1.837024e-02  -2.587072e-02  0 
 -1.701757e-02  -2.683865e-02  0 
 -4.121105e-02  -8.631182e-02  0 
 -2.966259e-02  -7.095198e-02  0 
 -2.458530e-02  -5.364511e-02  0 
 -1.555231e-02  -2.831261e-02  0 
 -1.408733e-02  -2.828477e-02  0 
 -2.379467e-02  -1.799304e-02  0 
 -2.192477e-02  -1.726868e-02  0 
 -2.970114e-02  -3.595388e-02  0 
 -1.751748e-02  -2.138285e-02  0 
 -2.009762e-02  -4.538047e-02  0 
 -4.466952e-02  -7.038242e-02  0 
 -1.443553e-02  -3.082853e-02  0 
 -1.463336e-02  -2.547312e-02  0 
 -1.786966e-02  -3.212670e-02  0 
 -2.247193e-02  -2.252162e-02  0 
 -2.898773e-02  -5.479669e-02  0 
 -4.081726e-02  -5.388364e-02  0 
 -1.644019e-02  -3.532036e-02  0 
 -2.926992e-02  -2.639027e-02  0 
 -1.551185e-02  -2.715213e-02  0 
 -1.557831e-02  -2.573579e-02  0 
 -1.436056e-02  -2.663356e-02  0 
VECTORS displacement_ITER12 FLOAT
 -1.962603e-02  -1.746446e-02  0 
 -5.726355e-02  -9.074660e-02  0 
 -1.520947e-02  -2.381042e-02  0 
 -1.961615e-02  -1.598888e-02  0 
 -3.143619e-02  -3.077221e-02  0 
 -4.156329e-02  -4.325408e-02  0 
 -5.117272e-02  -6.249892e-02  0 
 -1.815889e-02  -1.742786e-02  0 
 -1.675855e-02  -1.739325e-02  0 
 -1.600614e-02  -2.173652e-02  0 
 -1.519573e-02  -2.162788e-02  0 
 -3.654878e-02  -8.061244e-02  0 
 -2.598119e-02  -6.529238e-02  0 
 -2.200054e-02  -4.805145e-02  0 
 -1.305111e-02  -2.378149e-02  0 
 -1.090541e-02  -2.375548e-02  0 
 -1.865639e-02  -1.644401e-02  0 
 -1.745210e-02  -1.598114e-02  0 
 -2.503738e-02  -3.233535e-02  0 
 -1.436107e-02  -1.843757e-02  0 
 -1.709361e-02  -4.060047e-02  0 
 -3.964866e-02  -6.537113e-02  0 
 -1.197879e-02  -2.647634e-02  0 
 -1.211863e-02  -2.185528e-02  0 
 -1.456441e-02  -2.821698e-02  0 
 -1.819214e-02  -1.973241e-02  0 
 -2.482077e-02  -5.009041e-02  0 
 -3.579255e-02  -4.955188e-02  0 
 -1.436609e-02  -3.033529e-02  0 
 -2.413717e-02  -2.356737e-02  0 
 -1.299776e-02  -2.209063e-02  0 
 -1.309730e-02  -2.002430e-02  0 
 -1.130687e-02  -2.133367e-02  0 
VECTORS displacement_ITER13 FLOAT
 -1.244711e-02  -1.231720e-02  0 
 -4.949114e-02  -8.379000e-02  0 
 -9.517350e-03  -1.622726e-02  0 
 -1.243905e-02  -1.072142e-02  0 
 -2.392090e-02  -2.522334e-02  0 
 -3.385466e-02  -3.732469e-02  0 
 -4.339886e-02  -5.607308e-02  0 
 -1.086139e-02  -1.227970e-02  0 
 -9.348669e-03  -1.224253e-02  0 
 -8.941390e-03  -1.460945e-02  0 
 -9.503241e-03  -1.472038e-02  0 
 -2.930268e-02  -7.363344e-02  0 
 -1.917550e-02  -5.829534e-02  0 
 -1.571981e-02  -4.078303e-02  0 
 -8.034402e-03  -1.619873e-02  0 
 -6.563074e-03  -1.617354e-02  0 
 -1.139998e-02  -1.121564e-02  0 
 -1.009772e-02  -1.071646e-02  0 
 -1.775937e-02  -2.654191e-02  0 
 -7.495033e-03  -1.254503e-02  0 
 -1.050369e-02  -3.393510e-02  0 
 -3.220743e-02  -5.876426e-02  0 
 -5.642102e-03  -2.011518e-02  0 
 -5.480404e-03  -1.535175e-02  0 
 -7.882557e-03  -2.205392e-02  0 
 -1.094980e-02  -1.432020e-02  0 
 -1.780153e-02  -4.358779e-02  0 
 -2.833395e-02  -4.332592e-02  0 
 -8.221178e-03  -2.333183e-02  0 
 -1.677917e-02  -1.819360e-02  0 
 -7.994848e-03  -1.503414e-02  0 
 -8.061584e-03  -1.361387e-02  0 
 -6.839152e-03  -1.451391e-02  0 
VECTORS displacement_ITER14 FLOAT
 -1.145959e-02  -1.045632e-02  0 
 -4.876654e-02  -8.232421e-02  0 
 -7.928218e-03  -1.468016e-02  0 
 -1.145174e-02  -8.983641e-03  0 
 -2.305168e-02  -2.338403e-02  0 
 -3.307274e-02  -3.553840e-02  0 
 -4.266621e-02  -5.443288e-02  0 
 -9.997561e-03  -1.041827e-02  0 
 -8.610467e-03  -1.038085e-02  0 
 -7.128446e-03  -1.278218e-02  0 
 -7.913954e-03  -1.329556e-02  0 
 -2.840026e-02  -7.219184e-02  0 
 -1.805914e-02  -5.692109e-02  0 
 -1.437964e-02  -3.947266e-02  0 
 -6.567770e-03  -1.465116e-02  0 
 -5.219210e-03  -1.462549e-02  0 
 -1.049291e-02  -9.439636e-03  0 
 -9.295243e-03  -8.982250e-03  0 
 -1.688447e-02  -2.470178e-02  0 
 -6.495726e-03  -1.075141e-02  0 
 -9.279392e-03  -3.243326e-02  0 
 -3.137463e-02  -5.717925e-02  0 
 -4.275970e-03  -1.858210e-02  0 
 -4.183780e-03  -1.357477e-02  0 
 -6.817247e-03  -2.033165e-02  0 
 -1.009917e-02  -1.240987e-02  0 
 -1.682830e-02  -4.195975e-02  0 
 -2.750328e-02  -4.160872e-02  0 
 -6.751176e-03  -2.188287e-02  0 
 -1.590166e-02  -1.628604e-02  0 
 -6.530488e-03  -1.358222e-02  0 
 -6.591161e-03  -1.227945e-02  0 
 -5.472249e-03  -1.310495e-02  0 
VECTORS displacement_ITER15 FLOAT
 -8.026595e-03  -1.124263e-02  0 
 -4.603601e-02  -8.173369e-02  0 
 -5.247342e-03  -1.421315e-02  0 
 -8.018688e-03  -1.073274e-02  0 
 -1.994578e-02  -2.362476e-02  0 
 -3.020243e-02  -3.531398e-02  0 
 -3.991941e-02  -5.398985e-02  0 
 -7.528019e-03  -1.120379e-02  0 
 -7.106303e-03  -1.116675e-02  0 
 -4.564647e-03  -1.282674e-02  0 
 -5.232806e-03  -1.321865e-02  0 
 -2.581139e-02  -7.165893e-02  0 
 -1.556885e-02  -5.653119e-02  0 
 -1.191070e-02  -3.930263e-02  0 
 -4.277368e-03  -1.418299e-02  0 
 -3.320280e-03  -1.415602e-02  0 
 -7.687634e-03  -1.088741e-02  0 
 -7.298622e-03  -1.074805e-02  0 
 -1.442713e-02  -2.442700e-02  0 
 -4.679501e-03  -1.131240e-02  0 
 -6.906902e-03  -3.221276e-02  0 
 -2.875641e-02  -5.669599e-02  0 
 -1.898493e-03  -1.851758e-02  0 
 -2.087857e-03  -1.390377e-02  0 
 -4.604879e-03  -2.027296e-02  0 
 -8.021699e-03  -1.255281e-02  0 
 -1.435132e-02  -4.157653e-02  0 
 -2.490296e-02  -4.118481e-02  0 
 -4.191154e-03  -2.170502e-02  0 
 -1.315142e-02  -1.636919e-02  0 
 -4.247408e-03  -1.341901e-02  0 
 -4.288740e-03  -1.249032e-02  0 
 -3.499691e-03  -1.307868e-02  0 
VECTORS displacement_ITER16 FLOAT
 -5.827034e-03  -1.230140e-02  0 
 -4.349667e-02  -8.054720e-02  0 
 -4.313590e-03  -1.177942e-02  0 
 -5.819816e-03  -1.218423e-02  0 
 -1.753330e-02  -2.397065e-02  0 
 -2.768756e-02  -3.506470e-02  0 
 -3.738608e-02  -5.326170e-02  0 
 -5.721400e-03  -1.226329e-02  0 
 -5.692872e-03  -1.222679e-02  0 
 -3.724056e-03  -1.254671e-02  0 
 -4.298361e-03  -1.190545e-02  0 
 -2.372473e-02  -7.046522e-02  0 
 -1.394681e-02  -5.525538e-02  0 
 -1.071885e-02  -3.773371e-02  0 
 -4.464425e-03  -1.174798e-02  0 
 -4.628920e-03  -1.172012e-02  0 
 -5.744548e-03  -1.221657e-02  0 
 -5.684651e-03  -1.220691e-02  0 
 -1.245960e-02  -2.434933e-02  0 
 -3.376303e-03  -1.204420e-02  0 
 -5.451471e-03  -3.119183e-02  0 
 -2.651532e-02  -5.582920e-02  0 
 -6.325082e-04  -1.775957e-02  0 
 -9.481918e-04  -1.419277e-02  0 
 -3.025356e-03  -2.007710e-02  0 
 -6.329620e-03  -1.310080e-02  0 
 -1.246555e-02  -4.086012e-02  0 
 -2.267663e-02  -4.063202e-02  0 
 -2.944928e-03  -2.025046e-02  0 
 -1.107111e-02  -1.682495e-02  0 
 -4.456457e-03  -1.185832e-02  0 
 -4.442776e-03  -1.200201e-02  0 
 -4.598425e-03  -1.191091e-02  0 
VECTORS displacement_ITER17 FLOAT
 -4.978787e-03  -9.953923e-03  0 
 -4.171183e-02  -7.912328e-02  0 
 -1.849773e-03  -9.225049e-03  0 
 -4.972574e-03  -8.960806e-03  0 
 -1.620754e-02  -2.187744e-02  0 
 -2.605922e-02  -3.326496e-02  0 
 -3.562584e-02  -5.167204e-02  0 
 -3.997566e-03  -9.917265e-03  0 
 -3.093623e-03  -9.881444e-03  0 
 -1.596324e-03  -1.041209e-02  0 
 -1.833984e-03  -9.197769e-03  0 
 -2.177617e-02  -6.897840e-02  0 
 -1.193562e-02  -5.352780e-02  0 
 -8.592193e-03  -3.559036e-02  0 
 -1.847042e-03  -9.193419e-03  0 
 -1.857958e-03  -9.166119e-03  0 
 -4.326195e-03  -9.268529e-03  0 
 -3.532115e-03  -8.971680e-03  0 
 -1.048058e-02  -2.270096e-02  0 
 -8.509388e-04  -1.028619e-02  0 
 -3.189421e-03  -2.912353e-02  0 
 -2.460931e-02  -5.429517e-02  0 
 1.805430e-03  -1.541113e-02  0 
 1.515516e-03  -1.245739e-02  0 
 -5.469069e-04  -1.821617e-02  0 
 -4.070054e-03  -1.127599e-02  0 
 -1.037744e-02  -3.923805e-02  0 
 -2.076894e-02  -3.902822e-02  0 
 -6.143328e-04  -1.781898e-02  0 
 -9.477559e-03  -1.494979e-02  0 
 -1.836061e-03  -9.183640e-03  0 
 -1.829384e-03  -9.180531e-03  0 
 -1.856525e-03  -9.182097e-03  0 
VECTORS displacement_ITER18 FLOAT
 -5.087337e-03  -1.025246e-02  0 
 -4.148181e-02  -7.910872e-02  0 
 -1.890507e-03  -9.139757e-03  0 
 -5.081458e-03  -9.090243e-03  0 
 -1.615475e-02  -2.215304e-02  0 
 -2.589555e-02  -3.350104e-02  0 
 -3.540523e-02  -5.179818e-02  0 
 -3.937328e-03  -1.021628e-02  0 
 -2.864809e-03  -1.018102e-02  0 
 -2.013935e-03  -1.014850e-02  0 
 -1.874623e-03  -9.118820e-03  0 
 -2.169058e-02  -6.893583e-02  0 
 -1.205982e-02  -5.339585e-02  0 
 -8.736189e-03  -3.549362e-02  0 
 -1.894125e-03  -9.108203e-03  0 
 -1.911522e-03  -9.081343e-03  0 
 -4.324890e-03  -9.451327e-03  0 
 -3.389352e-03  -9.099222e-03  0 
 -1.036900e-02  -2.300766e-02  0 
 -8.463055e-04  -1.074953e-02  0 
 -3.348740e-03  -2.899841e-02  0 
 -2.446466e-02  -5.437672e-02  0 
 1.576421e-03  -1.519948e-02  0 
 1.342789e-03  -1.273767e-02  0 
 -5.135824e-04  -1.837208e-02  0 
 -3.920464e-03  -1.167597e-02  0 
 -1.033945e-02  -3.934706e-02  0 
 -2.062129e-02  -3.922150e-02  0 
 -7.488677e-04  -1.771888e-02  0 
 -9.417453e-03  -1.531149e-02  0 
 -1.883345e-03  -9.103264e-03  0 
 -1.876203e-03  -9.106297e-03  0 
 -1.908930e-03  -9.103830e-03  0 
VECTORS displacement_ITER19 FLOAT
 -4.782702e-03  -1.060983e-02  0 
 -4.125761e-02  -7.809852e-02  0 
 -2.540995e-03  -8.711469e-03  0 
 -4.776860e-03  -9.791671e-03  0 
 -1.589172e-02  -2.221531e-02  0 
 -2.565878e-02  -3.323989e-02  0 
 -3.517533e-02  -5.117025e-02  0 
 -3.977059e-03  -1.057337e-02  0 
 -3.249688e-03  -1.053808e-02  0 
 -2.860032e-03  -8.951563e-03  0 
 -2.525299e-03  -9.007239e-03  0 
 -2.185146e-02  -6.792942e-02  0 
 -1.261753e-02  -5.243710e-02  0 
 -9.355832e-03  -3.491329e-02  0 
 -2.861683e-03  -8.679980e-03  0 
 -3.196516e-03  -8.653303e-03  0 
 -4.244587e-03  -1.004506e-02  0 
 -3.597917e-03  -9.806366e-03  0 
 -1.050869e-02  -2.275607e-02  0 
 -1.503769e-03  -1.076080e-02  0 
 -4.126810e-03  -2.827800e-02  0 
 -2.448768e-02  -5.362251e-02  0 
 5.845963e-04  -1.452923e-02  0 
 5.011238e-04  -1.229759e-02  0 
 -1.152583e-03  -1.797123e-02  0 
 -4.196102e-03  -1.173808e-02  0 
 -1.069293e-02  -3.870196e-02  0 
 -2.063721e-02  -3.872153e-02  0 
 -1.453412e-03  -1.731097e-02  0 
 -9.354301e-03  -1.537128e-02  0 
 -2.857257e-03  -8.922438e-03  0 
 -2.834750e-03  -9.228859e-03  0 
 -3.134243e-03  -9.034117e-03  0 
VECTORS displacement_ITER20 FLOAT
 -5.334728e-03  -9.320873e-03  0 
 -4.194166e-02  -7.882021e-02  0 
 -1.359965e-03  -9.664671e-03  0 
 -5.328775e-03  -8.113002e-03  0 
 -1.653354e-02  -2.147525e-02  0 
 -2.633917e-02  -3.300322e-02  0 
 -3.586017e-02  -5.141504e-02  0 
 -4.139630e-03  -9.284058e-03  0 
 -3.023731e-03  -9.248509e-03  0 
 -1.581983e-03  -8.365980e-03  0 
 -1.344404e-03  -9.648147e-03  0 
 -2.206141e-02  -6.865114e-02  0 
 -1.238132e-02  -5.316162e-02  0 
 -8.595962e-03  -3.578778e-02  0 
 -1.368510e-03  -9.633545e-03  0 
 -1.391169e-03  -9.607489e-03  0 
 -4.542612e-03  -8.488453e-03  0 
 -3.570034e-03  -8.122088e-03  0 
 -1.066639e-02  -2.242743e-02  0 
 -9.676235e-04  -1.001971e-02  0 
 -3.630371e-03  -2.863234e-02  0 
 -2.486238e-02  -5.401811e-02  0 
 1.306602e-03  -1.462205e-02  0 
 1.331513e-03  -1.178697e-02  0 
 -7.566629e-04  -1.778181e-02  0 
 -4.133374e-03  -1.092235e-02  0 
 -1.067590e-02  -3.894945e-02  0 
 -2.100758e-02  -3.879474e-02  0 
 -5.547210e-04  -1.794520e-02  0 
 -9.705025e-03  -1.457420e-02  0 
 -1.358006e-03  -9.632414e-03  0 
 -1.350732e-03  -9.640290e-03  0 
 -1.387179e-03  -9.634450e-03  0 
VECTORS displacement_ITER21 FLOAT
 -4.944626e-03  -9.201743e-03  0 
 -4.179613e-02  -7.771333e-02  0 
 -2.464326e-03  -8.786834e-03  0 
 -4.938315e-03  -8.506407e-03  0 
 -1.629854e-02  -2.111565e-02  0 
 -2.617952e-02  -3.236710e-02  0 
 -3.571846e-02  -5.053764e-02  0 
 -4.262071e-03  -9.164272e-03  0 
 -3.658993e-03  -9.128704e-03  0 
 -2.701639e-03  -8.198460e-03  0 
 -2.448823e-03  -8.740067e-03  0 
 -2.214770e-02  -6.754844e-02  0 
 -1.273623e-02  -5.204548e-02  0 
 -9.355083e-03  -3.465246e-02  0 
 -2.442289e-03  -8.755912e-03  0 
 -2.434597e-03  -8.730236e-03  0 
 -4.486260e-03  -8.720913e-03  0 
 -3.943515e-03  -8.522613e-03  0 
 -1.081264e-02  -2.181542e-02  0 
 -1.703379e-03  -9.987580e-03  0 
 -4.222099e-03  -2.782600e-02  0 
 -2.487262e-02  -5.307719e-02  0 
 4.785996e-04  -1.404472e-02  0 
 3.892950e-04  -1.168840e-02  0 
 -1.276331e-03  -1.730340e-02  0 
 -4.515786e-03  -1.059730e-02  0 
 -1.088730e-02  -3.811856e-02  0 
 -2.103319e-02  -3.800013e-02  0 
 -1.500453e-03  -1.705522e-02  0 
 -9.677933e-03  -1.416227e-02  0 
 -2.431253e-03  -8.730937e-03  0 
 -2.425225e-03  -8.709268e-03  0 
 -2.435888e-03  -8.721787e-03  0 
VECTORS displacement_ITER22 FLOAT
 -5.557216e-03  -8.740962e-03  0 
 -4.224469e-02  -7.826567e-02  0 
 -2.570065e-03  -8.188267e-03  0 
 -5.550869e-03  -7.846340e-03  0 
 -1.684709e-02  -2.084026e-02  0 
 -2.667113e-02  -3.230400e-02  0 
 -3.618312e-02  -5.077178e-02  0 
 -4.675127e-03  -8.703640e-03  0 
 -3.871847e-03  -8.668517e-03  0 
 -2.432627e-03  -9.087067e-03  0 
 -2.554072e-03  -8.225612e-03  0 
 -2.227597e-02  -6.808429e-02  0 
 -1.258901e-02  -5.244487e-02  0 
 -9.340832e-03  -3.449846e-02  0 
 -2.631696e-03  -8.156796e-03  0 
 -2.708068e-03  -8.130984e-03  0 
 -4.968801e-03  -8.123090e-03  0 
 -4.258760e-03  -7.858708e-03  0 
 -1.102082e-02  -2.181600e-02  0 
 -1.613105e-03  -1.023892e-02  0 
 -3.909131e-03  -2.806465e-02  0 
 -2.511772e-02  -5.342666e-02  0 
 8.826740e-04  -1.436815e-02  0 
 5.882265e-04  -1.225008e-02  0 
 -1.034347e-03  -1.754702e-02  0 
 -4.702039e-03  -1.045275e-02  0 
 -1.084489e-02  -3.840082e-02  0 
 -2.129941e-02  -3.814324e-02  0 
 -1.410565e-03  -1.679842e-02  0 
 -1.010129e-02  -1.391122e-02  0 
 -2.622186e-03  -8.197034e-03  0 
 -2.611438e-03  -8.255178e-03  0 
 -2.692942e-03  -8.216214e-03  0 
VECTORS displacement_ITER23 FLOAT
 -6.087032e-03  -8.631617e-03  0 
 -4.281507e-02  -7.862320e-02  0 
 -2.721533e-03  -8.453239e-03  0 
 -6.080513e-03  -7.696239e-03  0 
 -1.740540e-02  -2.083758e-02  0 
 -2.724085e-02  -3.240321e-02  0 
 -3.675531e-02  -5.099756e-02  0 
 -5.164011e-03  -8.594201e-03  0 
 -4.319534e-03  -8.559270e-03  0 
 -2.429587e-03  -9.297957e-03  0 
 -2.705539e-03  -8.328125e-03  0 
 -2.271450e-02  -6.844204e-02  0 
 -1.290283e-02  -5.279019e-02  0 
 -9.602081e-03  -3.477845e-02  0 
 -2.620683e-03  -8.421506e-03  0 
 -2.535223e-03  -8.395559e-03  0 
 -5.471864e-03  -7.985519e-03  0 
 -4.727553e-03  -7.707379e-03  0 
 -1.146864e-02  -2.190712e-02  0 
 -1.942609e-03  -1.040573e-02  0 
 -4.155857e-03  -2.832808e-02  0 
 -2.560384e-02  -5.369660e-02  0 
 7.028235e-04  -1.460609e-02  0 
 3.360852e-04  -1.244637e-02  0 
 -1.323271e-03  -1.771284e-02  0 
 -5.131493e-03  -1.046495e-02  0 
 -1.122003e-02  -3.863722e-02  0 
 -2.178873e-02  -3.832363e-02  0 
 -1.630040e-03  -1.700487e-02  0 
 -1.060601e-02  -1.389242e-02  0 
 -2.607806e-03  -8.335188e-03  0 
 -2.604669e-03  -8.237783e-03  0 
 -2.549554e-03  -8.296801e-03  0 
VECTORS displacement_ITER24 FLOAT
 -6.410431e-03  -8.163354e-03  0 
 -4.298280e-02  -7.841783e-02  0 
 -2.379295e-03  -8.498126e-03  0 
 -6.404098e-03  -6.951439e-03  0 
 -1.763630e-02  -2.048819e-02  0 
 -2.742168e-02  -3.216082e-02  0 
 -3.691791e-02  -5.078604e-02  0 
 -5.210845e-03  -8.125999e-03  0 
 -4.090101e-03  -8.090721e-03  0 
 -1.939653e-03  -8.184878e-03  0 
 -2.363516e-03  -8.316301e-03  0 
 -2.287657e-02  -6.823163e-02  0 
 -1.303324e-02  -5.261247e-02  0 
 -9.491356e-03  -3.478006e-02  0 
 -2.222108e-03  -8.466462e-03  0 
 -2.080795e-03  -8.440733e-03  0 
 -5.615038e-03  -7.327409e-03  0 
 -4.638872e-03  -6.958439e-03  0 
 -1.155679e-02  -2.164570e-02  0 
 -1.801087e-03  -9.800338e-03  0 
 -4.218866e-03  -2.803838e-02  0 
 -2.576061e-02  -5.347640e-02  0 
 7.105494e-04  -1.417077e-02  0 
 5.068535e-04  -1.162739e-02  0 
 -1.374026e-03  -1.727200e-02  0 
 -5.080225e-03  -1.009697e-02  0 
 -1.137179e-02  -3.837655e-02  0 
 -2.192782e-02  -3.810662e-02  0 
 -1.455114e-03  -1.691702e-02  0 
 -1.074302e-02  -1.358213e-02  0 
 -2.208114e-03  -8.336315e-03  0 
 -2.207784e-03  -8.184916e-03  0 
 -2.105044e-03  -8.278018e-03  0 
VECTORS displacement_ITER25 FLOAT
 -6.910757e-03  -8.597430e-03  0 
 -4.359747e-02  -7.795225e-02  0 
 -3.238335e-03  -8.857780e-03  0 
 -6.904138e-03  -7.595577e-03  0 
 -1.818277e-02  -2.074350e-02  0 
 -2.800672e-02  -3.221391e-02  0 
 -3.752080e-02  -5.058829e-02  0 
 -5.920906e-03  -8.559950e-03  0 
 -5.009098e-03  -8.524822e-03  0 
 -3.146285e-03  -7.621722e-03  0 
 -3.222995e-03  -8.555646e-03  0 
 -2.376055e-02  -6.777743e-02  0 
 -1.415448e-02  -5.225638e-02  0 
 -1.053549e-02  -3.482917e-02  0 
 -2.961330e-03  -8.826171e-03  0 
 -2.701242e-03  -8.800600e-03  0 
 -6.251979e-03  -7.905356e-03  0 
 -5.451325e-03  -7.604650e-03  0 
 -1.238716e-02  -2.166654e-02  0 