# vtk DataFile Version 3.1
this is an vtk file created by FEMAC
ASCII
DATASET UNSTRUCTURED_GRID
POINTS 33 FLOAT
3.000000 2.000000 0.000000
4.000000 3.000000 0.000000
2.750000 2.000000 0.000000
3.000000 1.750000 0.000000
3.000000 2.250000 0.000000
3.000000 2.500000 0.000000
3.250000 2.000000 0.000000
3.500000 2.000000 0.000000
3.750000 2.000000 0.000000
3.500000 3.000000 0.000000
3.750000 3.000000 0.000000
2.832250 1.761003 0.000000
2.844330 2.155709 0.000000
3.165495 1.828528 0.000000
3.400214 1.786986 0.000000
3.237145 1.579099 0.000000
3.646988 1.793399 0.000000
3.817501 1.632951 0.000000
3.559152 1.528294 0.000000
3.842898 1.835270 0.000000
3.786897 2.360864 0.000000
3.255000 2.805000 0.000000
3.165198 2.171305 0.000000
3.645168 2.822337 0.000000
3.344773 2.161848 0.000000
3.574936 2.222548 0.000000
3.183310 2.629173 0.000000
3.436531 2.678490 0.000000
3.532441 2.462106 0.000000
3.749641 2.630999 0.000000
3.828962 2.840667 0.000000
3.836478 2.155331 0.000000
3.279649 2.384434 0.000000
CELLS 43 172 
3 2 11  0
3 11  3  0
3 12  2  0
3 4 12  0
3 6 14  7
3 13 14  6
3 13  0  3
3 6  0 13
3 13  3 15
3 15 14 13
3 7 16  8
3 16  7 14
3 18 16 14
3 19  8 16
3 16 17 19
3 17 16 18
3 24  6  7
3 8 25  7
3 23 10  9
3 28 25 20
3 26 27 21
3 24 22  6
3 27  9 21
3 23  9 27
3 23 27 29
3 0 22  4
3 0  6 22
3 10 30  1
3 23 30 10
3 31 25  8
3 20 25 31
3 24  7 25
3 28 29 27
3 32 26  5
3 4 32  5
3 4 22 32
3 28 20 29
3 24 32 22
3 24 25 32
3 26 32 27
3 28 27 32
3 28 32 25
3 23 29 30
CELL_TYPES 43
5 5 5 5 5 5 5 5 5 5 5 5 5 5 5 5 5 5 5 5 5 5 5 5 5 5 5 5 5 5 5 5 5 5 5 5 5 5 5 5 5 5 5 
POINT_DATA 33
VECTORS displacement_ITER1 FLOAT
 -2.248185e-02  -1.105504e-01  0 
 -1.179511e-02  -2.310874e-01  0 
 -2.251755e-02  -8.589260e-02  0 
 -5.330290e-02  -1.105672e-01  0 
 2.074680e-03  -1.105320e-01  0 
 -6.688096e-03  -1.239828e-01  0 
 -2.246918e-02  -1.414132e-01  0 
 -2.246494e-02  -1.722718e-01  0 
 -2.247219e-02  -2.031361e-01  0 
 -1.847459e-02  -1.719036e-01  0 
 -1.154331e-02  -1.885856e-01  0 
 -4.533736e-02  -8.074877e-02  0 
 -7.173549e-03  -9.522429e-02  0 
 -4.362630e-02  -1.309778e-01  0 
 -4.875216e-02  -1.599513e-01  0 
 -7.439135e-02  -1.398257e-01  0 
 -4.796501e-02  -1.904273e-01  0 
 -6.777443e-02  -2.114905e-01  0 
 -8.069221e-02  -1.795875e-01  0 
 -4.280297e-02  -2.146150e-01  0 
 -6.301436e-03  -1.893307e-01  0 
 -1.087580e-02  -1.616802e-01  0 
 -8.158324e-03  -1.338817e-01  0 
 -1.392332e-02  -1.767873e-01  0 
 -1.007841e-02  -1.532498e-01  0 
 -8.201475e-03  -1.769166e-01  0 
 -6.355572e-03  -1.491602e-01  0 
 -6.254423e-03  -1.663216e-01  0 
 -2.437395e-03  -1.697771e-01  0 
 -7.335964e-03  -1.799806e-01  0 
 -1.639389e-02  -1.935308e-01  0 
 -1.708694e-02  -2.037893e-01  0 
 -9.252440e-04  -1.463812e-01  0 
VECTORS displacement_ITER2 FLOAT
 -2.828927e-02  -8.604995e-02  0 
 9.018514e-03  -1.146288e-01  0 
 -2.830317e-02  -8.113350e-02  0 
 -3.084496e-02  -8.612796e-02  0 
 -2.345330e-02  -8.597358e-02  0 
 -1.125708e-02  -7.418247e-02  0 
 -2.828964e-02  -8.868591e-02  0 
 -2.830665e-02  -9.126185e-02  0 
 -2.832475e-02  -9.384570e-02  0 
 1.551662e-02  -6.930138e-02  0 
 1.256349e-02  -9.727177e-02  0 
 -2.638538e-02  -8.320332e-02  0 
 -2.526160e-02  -8.298205e-02  0 
 -3.005905e-02  -8.781085e-02  0 
 -3.048274e-02  -9.024534e-02  0 
 -3.259831e-02  -8.856744e-02  0 
 -3.042680e-02  -9.277777e-02  0 
 -3.204131e-02  -9.449868e-02  0 
 -3.309467e-02  -9.187412e-02  0 
 -3.000384e-02  -9.478287e-02  0 
 -1.842112e-02  -1.066347e-01  0 
 5.984000e-03  -6.949047e-02  0 
 -2.485444e-02  -8.685221e-02  0 
 -3.792424e-04  -9.238302e-02  0 
 -2.582797e-02  -8.914004e-02  0 
 -2.450782e-02  -9.468799e-02  0 
 -6.397216e-03  -7.368621e-02  0 
 -5.737300e-03  -8.455776e-02  0 
 -1.690426e-02  -9.408455e-02  0 
 -1.044250e-02  -1.041342e-01  0 
 6.584185e-04  -1.072776e-01  0 
 -2.170334e-02  -1.050208e-01  0 
 -2.031907e-02  -8.536920e-02  0 
VECTORS displacement_ITER3 FLOAT
 -1.865145e-02  -2.655756e-02  0 
 -3.923475e-03  -2.820569e-02  0 
 -1.867709e-02  -2.623563e-02  0 
 -2.226216e-02  -2.661586e-02  0 
 -1.846241e-02  -2.646118e-02  0 
 -1.305734e-02  -2.174153e-02  0 
 -1.865401e-02  -3.024571e-02  0 
 -1.869213e-02  -3.385865e-02  0 
 -1.873707e-02  -3.740649e-02  0 
 2.837029e-04  -1.921690e-02  0 
 2.452935e-03  -3.039780e-02  0 
 -1.960920e-02  -2.380397e-02  0 
 -1.850776e-02  -2.636811e-02  0 
 -2.113719e-02  -2.901081e-02  0 
 -2.172693e-02  -3.244412e-02  0 
 -2.473469e-02  -3.005700e-02  0 
 -2.162573e-02  -3.596093e-02  0 
 -2.384135e-02  -3.834626e-02  0 
 -2.533240e-02  -3.468803e-02  0 
 -2.104835e-02  -3.870151e-02  0 
 -1.600301e-02  -3.857147e-02  0 
 -5.052312e-03  -2.018898e-02  0 
 -1.779812e-02  -2.755899e-02  0 
 -4.784780e-03  -2.803512e-02  0 
 -1.799796e-02  -3.044757e-02  0 
 -1.782103e-02  -3.395702e-02  0 
 -1.015952e-02  -2.203602e-02  0 
 -8.661835e-03  -2.545372e-02  0 
 -1.415032e-02  -3.123552e-02  0 
 -1.094473e-02  -3.475809e-02  0 
 -2.756654e-03  -3.573085e-02  0 
 -1.803721e-02  -3.982937e-02  0 
 -1.558259e-02  -2.710522e-02  0 
VECTORS displacement_ITER4 FLOAT
 -9.839031e-03  -1.130529e-02  0 
 -3.202235e-03  -3.487995e-03  0 
 -9.837900e-03  -1.150858e-02  0 
 -1.161990e-02  -1.138522e-02  0 
 -1.020836e-02  -1.114647e-02  0 
 -1.644284e-03  1.010417e-03  0 
 -9.889868e-03  -1.314272e-02  0 
 -9.987341e-03  -1.482336e-02  0 
 -1.006063e-02  -1.632315e-02  0 
 -6.627996e-03  -1.105298e-02  0 
 -7.207962e-04  -9.105592e-03  0 
 -7.996598e-03  -8.807703e-03  0 
 -1.001609e-02  -1.143574e-02  0 
 -1.107396e-02  -1.255622e-02  0 
 -1.134619e-02  -1.422586e-02  0 
 -1.281859e-02  -1.305892e-02  0 
 -1.127310e-02  -1.573949e-02  0 
 -1.215384e-02  -1.672010e-02  0 
 -1.281417e-02  -1.515641e-02  0 
 -1.104241e-02  -1.685281e-02  0 
 -6.157603e-03  -1.697814e-02  0 
 -4.335170e-03  -6.932721e-03  0 
 -9.293130e-03  -1.117407e-02  0 
 -1.708422e-03  -8.600392e-03  0 
 -9.136364e-03  -1.244921e-02  0 
 -8.334839e-03  -1.409330e-02  0 
 -2.491305e-03  -3.781150e-03  0 
 -2.347454e-03  -8.766612e-03  0 
 -5.756053e-03  -1.250884e-02  0 
 -3.522991e-03  -1.307166e-02  0 
 -5.538220e-04  -1.055891e-02  0 
 -7.546153e-03  -1.831212e-02  0 
 -7.892933e-03  -1.037493e-02  0 
VECTORS displacement_ITER5 FLOAT
 -4.346190e-03  -7.697027e-03  0 
 2.498987e-03  -5.739581e-03  0 
 -4.354673e-03  -2.875076e-03  0 
 -4.098393e-03  -7.781341e-03  0 
 2.408847e-04  -7.493453e-03  0 
 -4.324595e-04  -6.656615e-03  0 
 -4.402440e-03  -7.513788e-03  0 
 -4.520790e-03  -7.110660e-03  0 
 -4.601755e-03  -6.457668e-03  0 
 -4.397292e-03  -2.417775e-03  0 
 3.335788e-04  -3.844583e-03  0 
 -5.342807e-03  -3.605745e-03  0 
 -1.417755e-03  -4.705081e-03  0 
 -4.181832e-03  -7.611548e-03  0 
 -4.092733e-03  -7.359304e-03  0 
 -3.893879e-03  -7.516039e-03  0 
 -4.052531e-03  -6.766947e-03  0 
 -3.561959e-03  -6.297622e-03  0 
 -3.347843e-03  -6.908579e-03  0 
 -4.178408e-03  -6.193669e-03  0 
 -2.815041e-03  -7.906936e-03  0 
 -2.291017e-03  -1.167017e-03  0 
 -1.830305e-03  -7.451677e-03  0 
 -1.639516e-03  -2.014213e-03  0 
 -3.010572e-03  -6.739379e-03  0 
 -3.502478e-03  -6.592023e-03  0 
 -1.742722e-03  -2.106077e-03  0 
 -1.631401e-03  -2.562836e-03  0 
 -1.820529e-03  -4.586726e-03  0 
 -1.837066e-03  -4.239418e-03  0 
 -3.743964e-04  -4.280607e-03  0 
 -3.258138e-03  -8.697488e-03  0 
 -1.426665e-03  -4.452119e-03  0 
VECTORS displacement_ITER6 FLOAT
 -2.249791e-03  -3.050521e-03  0 
 -9.799844e-04  -4.752265e-03  0 
 -2.247696e-03  -1.756903e-03  0 
 -2.794054e-03  -3.159257e-03  0 
 -1.201915e-03  -2.834895e-03  0 
 -3.916432e-05  -5.080364e-03  0 
 -2.301256e-03  -3.689664e-03  0 
 -2.419528e-03  -4.087039e-03  0 
 -2.491511e-03  -4.232461e-03  0 
 -3.450632e-04  -4.498790e-03  0 
 -1.216867e-03  -2.984814e-03  0 
 -2.345399e-03  -2.191350e-03  0 
 -1.531331e-03  -2.246819e-03  0 
 -2.631707e-03  -3.512646e-03  0 
 -2.670716e-03  -4.018303e-03  0 
 -3.149708e-03  -3.657432e-03  0 
 -2.604724e-03  -4.202604e-03  0 
 -2.604289e-03  -4.253159e-03  0 
 -2.705883e-03  -4.075422e-03  0 
 -2.586023e-03  -4.259041e-03  0 
 -4.227368e-04  -5.367951e-03  0 
 -4.402379e-04  -1.652344e-03  0 
 -1.515647e-03  -3.227070e-03  0 
 9.267342e-06  -4.259426e-03  0 
 -1.594105e-03  -3.659778e-03  0 
 -1.261602e-03  -4.210139e-03  0 
 -7.167689e-04  -2.244496e-03  0 
 -5.383954e-04  -3.297725e-03  0 
 -2.745890e-04  -3.670476e-03  0 
 3.472438e-04  -4.479836e-03  0 
 -3.042415e-04  -3.620296e-03  0 
 -1.024763e-03  -5.697278e-03  0 
 -3.433386e-04  -3.331872e-03  0 
VECTORS displacement_ITER7 FLOAT
 -1.001229e-03  -2.415860e-03  0 
 2.811146e-04  -4.348288e-03  0 
 -9.289055e-04  -2.056516e-03  0 
 -1.478631e-03  -2.601518e-03  0 
 -7.738156e-04  -2.203115e-03  0 
 -3.022837e-04  -1.928057e-03  0 
 -1.073466e-03  -2.979244e-03  0 
 -1.115494e-03  -3.390549e-03  0 
 -1.146363e-03  -3.760827e-03  0 
 -8.243057e-05  -2.945497e-03  0 
 8.112276e-05  -3.708385e-03  0 
 -1.283942e-03  -2.040959e-03  0 
 -7.976922e-04  -2.130163e-03  0 
 -1.373998e-03  -2.859454e-03  0 
 -1.448630e-03  -3.248142e-03  0 
 -1.740217e-03  -3.031481e-03  0 
 -1.430460e-03  -3.613386e-03  0 
 -1.621024e-03  -3.824632e-03  0 
 -1.784456e-03  -3.445744e-03  0 
 -1.376730e-03  -3.888038e-03  0 
 -4.867038e-04  -4.245996e-03  0 
 2.208652e-04  -3.657769e-03  0 
 -8.996652e-04  -2.702817e-03  0 
 -9.789658e-05  -3.510088e-03  0 
 -9.073199e-04  -3.146003e-03  0 
 -7.984091e-04  -3.647461e-03  0 
 9.815524e-05  -3.229360e-03  0 
 1.769677e-04  -3.564110e-03  0 
 -2.937380e-04  -3.723496e-03  0 
 -1.468854e-04  -4.017059e-03  0 
 -1.265755e-04  -3.975443e-03  0 
 -8.539081e-04  -4.231702e-03  0 
 -5.005095e-04  -3.103616e-03  0 
VECTORS displacement_ITER8 FLOAT
 -9.650325e-04  -2.363520e-03  0 
 2.107505e-04  -4.087861e-03  0 
 -8.673588e-04  -1.886792e-03  0 
 -1.382913e-03  -2.563212e-03  0 
 -5.632212e-04  -2.162753e-03  0 
 -2.420100e-04  -2.151672e-03  0 
 -1.038533e-03  -2.872632e-03  0 
 -1.078935e-03  -3.234561e-03  0 
 -1.101507e-03  -3.570388e-03  0 
 4.023162e-05  -3.056712e-03  0 
 1.750811e-04  -3.488602e-03  0 
 -1.249524e-03  -2.179651e-03  0 
 -6.601961e-04  -1.974857e-03  0 
 -1.303964e-03  -2.774485e-03  0 
 -1.377816e-03  -3.114740e-03  0 
 -1.614946e-03  -2.937011e-03  0 
 -1.371915e-03  -3.439060e-03  0 
 -1.533784e-03  -3.618560e-03  0 
 -1.669292e-03  -3.290615e-03  0 
 -1.331367e-03  -3.710158e-03  0 
 -7.387237e-04  -3.647517e-03  0 
 -6.189450e-05  -2.673690e-03  0 
 -7.702964e-04  -2.586770e-03  0 
 8.050650e-06  -3.261454e-03  0 
 -8.635808e-04  -2.937612e-03  0 
 -8.756249e-04  -3.301311e-03  0 
 -2.410761e-04  -2.451367e-03  0 
 -1.562730e-04  -2.909942e-03  0 
 -4.687805e-04  -3.106484e-03  0 
 -2.291738e-04  -3.489108e-03  0 
 1.193400e-04  -3.701069e-03  0 
 -1.017035e-03  -3.729010e-03  0 
 -4.966020e-04  -2.673792e-03  0 
VECTORS displacement_ITER9 FLOAT
 -9.674129e-04  -2.276168e-03  0 
 2.121677e-04  -3.942055e-03  0 
 -8.849438e-04  -1.769266e-03  0 
 -1.380626e-03  -2.472520e-03  0 
 -5.706399e-04  -2.063743e-03  0 
 -3.412513e-04  -1.913768e-03  0 
 -1.039256e-03  -2.779090e-03  0 
 -1.083526e-03  -3.134481e-03  0 
 -1.111004e-03  -3.455567e-03  0 
 2.154060e-04  -3.269264e-03  0 
 1.840948e-04  -3.523103e-03  0 
 -1.109390e-03  -2.062803e-03  0 
 -6.571924e-04  -1.886029e-03  0 
 -1.302322e-03  -2.679438e-03  0 
 -1.373417e-03  -3.021019e-03  0 
 -1.615279e-03  -2.831063e-03  0 
 -1.368971e-03  -3.335488e-03  0 
 -1.529023e-03  -3.516872e-03  0 
 -1.653317e-03  -3.194246e-03  0 
 -1.334009e-03  -3.598255e-03  0 
 -7.371868e-04  -3.516911e-03  0 
 -1.662395e-04  -2.526330e-03  0 
 -7.867073e-04  -2.506180e-03  0 
 1.272214e-05  -3.380935e-03  0 
 -8.768775e-04  -2.833116e-03  0 
 -8.833626e-04  -3.184642e-03  0 
 -3.021323e-04  -2.335434e-03  0 
 -2.743244e-04  -2.855542e-03  0 
 -5.666742e-04  -3.054702e-03  0 
 -3.276740e-04  -3.548384e-03  0 
 2.277546e-05  -3.721634e-03  0 
 -9.816570e-04  -3.560392e-03  0 
 -5.936080e-04  -2.584845e-03  0 
VECTORS displacement_ITER10 FLOAT
 -9.197647e-04  -2.215548e-03  0 
 1.638670e-04  -3.942085e-03  0 
 -8.293422e-04  -1.731727e-03  0 
 -1.349397e-03  -2.411713e-03  0 
 -5.273237e-04  -2.013405e-03  0 
 -3.435794e-04  -1.911812e-03  0 
 -9.918491e-04  -2.733275e-03  0 
 -1.036649e-03  -3.104117e-03  0 
 -1.064287e-03  -3.439474e-03  0 
 8.402681e-05  -3.036972e-03  0 
 1.156268e-04  -3.467842e-03  0 
 -1.150772e-03  -2.004431e-03  0 
 -6.172221e-04  -1.834024e-03  0 
 -1.266087e-03  -2.627783e-03  0 
 -1.339290e-03  -2.984814e-03  0 
 -1.594197e-03  -2.779423e-03  0 
 -1.333910e-03  -3.313282e-03  0 
 -1.502476e-03  -3.502285e-03  0 
 -1.635381e-03  -3.164637e-03  0 
 -1.295621e-03  -3.588304e-03  0 
 -6.354526e-04  -3.522839e-03  0 
 1.822759e-05  -2.599866e-03  0 
 -7.361637e-04  -2.462614e-03  0 
 -6.291131e-06  -3.271428e-03  0 
 -8.159643e-04  -2.805249e-03  0 
 -8.026032e-04  -3.179339e-03  0 
 -1.234103e-04  -2.427081e-03  0 
 -1.080354e-04  -2.898585e-03  0 
 -4.502591e-04  -3.082970e-03  0 
 -2.283106e-04  -3.519937e-03  0 
 1.973582e-05  -3.653980e-03  0 
 -9.106944e-04  -3.591640e-03  0 
 -5.112064e-04  -2.586509e-03  0 
VECTORS displacement_ITER11 FLOAT
 -9.310454e-04  -2.224741e-03  0 
 1.847277e-04  -3.911481e-03  0 
 -8.418273e-04  -1.747769e-03  0 
 -1.350986e-03  -2.421572e-03  0 
 -5.456021e-04  -2.019473e-03  0 
 -2.857461e-04  -1.944942e-03  0 
 -1.002716e-03  -2.732863e-03  0 
 -1.046580e-03  -3.096456e-03  0 
 -1.074113e-03  -3.425653e-03  0 
 1.025038e-04  -3.067718e-03  0 
 1.239086e-04  -3.458309e-03  0 
 -1.178190e-03  -2.003914e-03  0 
 -6.317592e-04  -1.847442e-03  0 
 -1.271130e-03  -2.630328e-03  0 
 -1.343361e-03  -2.979095e-03  0 
 -1.593847e-03  -2.780003e-03  0 
 -1.337969e-03  -3.301748e-03  0 
 -1.502622e-03  -3.486641e-03  0 
 -1.633829e-03  -3.155230e-03  0 
 -1.300587e-03  -3.570710e-03  0 
 -6.364444e-04  -3.567257e-03  0 
 -3.973479e-05  -2.567220e-03  0 
 -7.493087e-04  -2.460006e-03  0 
 -1.742296e-05  -3.257608e-03  0 
 -8.285022e-04  -2.804968e-03  0 
 -8.153591e-04  -3.179929e-03  0 
 -1.731869e-04  -2.378044e-03  0 
 -1.545562e-04  -2.870759e-03  0 
 -4.454775e-04  -3.060958e-03  0 
 -2.528687e-04  -3.455331e-03  0 
 9.780631e-06  -3.606023e-03  0 
 -9.109116e-04  -3.609105e-03  0 
 -5.004287e-04  -2.583970e-03  0 
VECTORS displacement_ITER12 FLOAT
 -9.310195e-04  -2.223316e-03  0 
 1.802689e-04  -3.915983e-03  0 
 -8.429303e-04  -1.743696e-03  0 
 -1.351518e-03  -2.420209e-03  0 
 -5.448556e-04  -2.017469e-03  0 
 -2.868275e-04  -1.942897e-03  0 
 -1.002657e-03  -2.732012e-03  0 
 -1.046243e-03  -3.096272e-03  0 
 -1.073321e-03  -3.427268e-03  0 
 1.031943e-04  -3.068196e-03  0 
 1.230835e-04  -3.456998e-03  0 
 -1.176810e-03  -2.012956e-03  0 
 -6.314985e-04  -1.846112e-03  0 
 -1.271503e-03  -2.629340e-03  0 
 -1.343857e-03  -2.978439e-03  0 
 -1.593795e-03  -2.779139e-03  0 
 -1.338590e-03  -3.302108e-03  0 
 -1.503690e-03  -3.487225e-03  0 
 -1.635172e-03  -3.155616e-03  0 
 -1.300751e-03  -3.571846e-03  0 
 -6.407362e-04  -3.562406e-03  0 
 -2.811264e-05  -2.565900e-03  0 
 -7.493857e-04  -2.457510e-03  0 
 -1.622522e-05  -3.261389e-03  0 
 -8.306966e-04  -2.801747e-03  0 
 -8.209243e-04  -3.176468e-03  0 
 -1.833537e-04  -2.355917e-03  0 
 -1.521492e-04  -2.872840e-03  0 
 -4.486109e-04  -3.058924e-03  0 
 -2.474109e-04  -3.463966e-03  0 
 7.127137e-06  -3.607799e-03  0 
 -9.204281e-04  -3.602706e-03  0 
 -5.067404e-04  -2.573175e-03  0 
VECTORS displacement_ITER13 FLOAT
 -9.307077e-04  -2.223235e-03  0 
 1.811012e-04  -3.915399e-03  0 
 -8.424837e-04  -1.744496e-03  0 
 -1.351131e-03  -2.420123e-03  0 
 -5.448906e-04  -2.017303e-03  0 
 -2.866650e-04  -1.942772e-03  0 
 -1.002370e-03  -2.731845e-03  0 
 -1.045969e-03  -3.096058e-03  0 
 -1.073127e-03  -3.426811e-03  0 
 1.027318e-04  -3.067745e-03  0 
 1.229040e-04  -3.457429e-03  0 
 -1.175531e-03  -2.014097e-03  0 
 -6.314248e-04  -1.846306e-03  0 
 -1.271146e-03  -2.629219e-03  0 
 -1.343513e-03  -2.978234e-03  0 
 -1.593446e-03  -2.779070e-03  0 
 -1.338189e-03  -3.301836e-03  0 
 -1.503451e-03  -3.487169e-03  0 
 -1.634922e-03  -3.155193e-03  0 
 -1.300389e-03  -3.571647e-03  0 
 -6.432392e-04  -3.560172e-03  0 
 -2.826502e-05  -2.565322e-03  0 
 -7.494507e-04  -2.457374e-03  0 
 -1.494007e-05  -3.261602e-03  0 
 -8.309319e-04  -2.801630e-03  0 
 -8.216946e-04  -3.176227e-03  0 
 -1.833892e-04  -2.355481e-03  0 
 -1.517472e-04  -2.871758e-03  0 
 -4.501569e-04  -3.058105e-03  0 
 -2.464094e-04  -3.466616e-03  0 
 9.362863e-06  -3.606320e-03  0 
 -9.221739e-04  -3.603744e-03  0 
 -5.072677e-04  -2.572782e-03  0 
VECTORS displacement_ITER14 FLOAT
 -9.307694e-04  -2.223293e-03  0 
 1.810650e-04  -3.915410e-03  0 
 -8.425673e-04  -1.744523e-03  0 
 -1.351210e-03  -2.420168e-03  0 
 -5.449179e-04  -2.017331e-03  0 
 -2.866853e-04  -1.942809e-03  0 
 -1.002432e-03  -2.731914e-03  0 
 -1.046045e-03  -3.096110e-03  0 
 -1.073209e-03  -3.426839e-03  0 
 1.027695e-04  -3.067777e-03  0 
 1.229335e-04  -3.457373e-03  0 
 -1.176069e-03  -2.013957e-03  0 
 -6.314748e-04  -1.846368e-03  0 
 -1.271212e-03  -2.629281e-03  0 
 -1.343568e-03  -2.978308e-03  0 
 -1.593510e-03  -2.779115e-03  0 
 -1.338253e-03  -3.301880e-03  0 
 -1.503452e-03  -3.487129e-03  0 
 -1.634912e-03  -3.155290e-03  0 
 -1.300450e-03  -3.571648e-03  0 
 -6.423625e-04  -3.559314e-03  0 
 -2.855989e-05  -2.565014e-03  0 
 -7.493959e-04  -2.457456e-03  0 
 -1.514652e-05  -3.261744e-03  0 
 -8.306593e-04  -2.801620e-03  0 
 -8.209748e-04  -3.176110e-03  0 
 -1.830668e-04  -2.356002e-03  0 
 -1.518738e-04  -2.871783e-03  0 
 -4.500826e-04  -3.058262e-03  0 
 -2.464017e-04  -3.467069e-03  0 
 8.709976e-06  -3.606137e-03  0 
 -9.214377e-04  -3.604418e-03  0 
 -5.071012e-04  -2.573218e-03  0 
CELL_DATA 43
TENSORS element_stresses FLOAT
 -2.333236e-04  -4.931356e-04  0 
 -4.931356e-04  3.982829e-04  0 
 0  0  0 

 -7.664826e-04  -5.293215e-04  0 
 -5.293215e-04  5.575546e-04  0 
 0  0  0 

 -2.208531e-01  -2.658944e-01  0 
 -2.658944e-01  4.398512e-01  0 
 0  0  0 

 -1.446955e-01  -4.142606e-02  0 
 -4.142606e-02  7.804387e-01  0 
 0  0  0 

 -1.490451e-01  1.666300e-02  0 
 1.666300e-02  8.468878e-02  0 
 0  0  0 

 9.551533e-03  8.948284e-02  0 
 8.948284e-02  1.263764e-01  0 
 0  0  0 

 -8.612356e-02  3.425172e-02  0 
 3.425172e-02  7.616623e-01  0 
 0  0  0 

 -1.817821e-01  -2.505578e-01  0 
 -2.505578e-01  3.495622e-01  0 
 0  0  0 

 -5.649969e-02  -7.961157e-02  0 
 -7.961157e-02  1.922757e-01  0 
 0  0  0 

 -3.183930e-02  -1.435174e-01  0 
 -1.435174e-01  1.733048e-01  0 
 0  0  0 

 -1.013440e-01  1.087684e-02  0 
 1.087684e-02  2.437228e-02  0 
 0  0  0 

 4.004380e-03  6.993098e-02  0 
 6.993098e-02  6.316151e-02  0 
 0  0  0 

 -4.777422e-02  -1.434998e-01  0 
 -1.434998e-01  -1.338778e-01  0 
 0  0  0 

 -6.974062e-02  -5.257497e-02  0 
 -5.257497e-02  7.057049e-02  0 
 0  0  0 

 -1.072240e-01  -2.438980e-01  0 
 -2.438980e-01  -2.838168e-01  0 
 0  0  0 

 2.198108e-02  -9.775734e-02  0 
 -9.775734e-02  -1.405300e-01  0 
 0  0  0 

 -5.246531e-05  -2.256207e-04  0 
 -2.256207e-04  4.066215e-04  0 
 0  0  0 

 -9.105755e-05  -2.115349e-04  0 
 -2.115349e-04  5.866033e-05  0 
 0  0  0 

 2.877086e-05  -6.375197e-04  0 
 -6.375197e-04  -1.729500e-04  0 
 0  0  0 

 -1.145141e-04  -2.972744e-04  0 
 -2.972744e-04  1.191185e-04  0 
 0  0  0 

 -1.855333e-04  -8.162329e-04  0 
 -8.162329e-04  -4.447977e-04  0 
 0  0  0 

 -2.016526e-04  -4.573706e-04  0 
 -4.573706e-04  6.103996e-04  0 
 0  0  0 

 -2.029917e-04  -8.037417e-04  0 
 -8.037417e-04  -3.035229e-04  0 
 0  0  0 

 4.716381e-05  -6.999963e-04  0 
 -6.999963e-04  -2.643917e-04  0 
 0  0  0 

 -1.294895e-04  -5.826086e-04  0 
 -5.826086e-04  -6.698513e-07  0 
 0  0  0 

 -2.806479e-04  -5.602769e-04  0 
 -5.602769e-04  7.396530e-04  0 
 0  0  0 

 -1.188393e-04  -5.379032e-04  0 
 -5.379032e-04  5.593715e-04  0 
 0  0  0 

 2.639937e-04  -7.692510e-04  0 
 -7.692510e-04  1.048918e-04  0 
 0  0  0 

 6.264083e-05  -8.691215e-04  0 
 -8.691215e-04  2.360704e-05  0 
 0  0  0 

 -1.946323e-04  -4.983186e-04  0 
 -4.983186e-04  -2.609198e-04  0 
 0  0  0 

 -1.029010e-04  -2.592031e-04  0 
 -2.592031e-04  -2.180714e-04  0 
 0  0  0 

 -2.027568e-04  -4.517285e-04  0 
 -4.517285e-04  1.459232e-04  0 
 0  0  0 

 -1.026535e-04  -4.339110e-04  0 
 -4.339110e-04  -1.030665e-05  0 
 0  0  0 

 -3.162744e-04  -8.027147e-04  0 
 -8.027147e-04  -9.468448e-05  0 
 0  0  0 

 -2.987891e-04  -8.447486e-04  0 
 -8.447486e-04  2.084531e-04  0 
 0  0  0 

 -3.762351e-04  -6.869194e-04  0 
 -6.869194e-04  5.938706e-04  0 
 0  0  0 

 -1.761244e-04  -3.838866e-04  0 
 -3.838866e-04  2.112488e-05  0 
 0  0  0 

 -2.638046e-04  -4.228859e-04  0 
 -4.228859e-04  3.935238e-04  0 
 0  0  0 

 -1.798212e-04  -3.083199e-04  0 
 -3.083199e-04  4.567284e-04  0 
 0  0  0 

 -1.111985e-04  -5.981763e-04  0 
 -5.981763e-04  4.628266e-05  0 
 0  0  0 

 -1.881036e-04  -4.775895e-04  0 
 -4.775895e-04  -4.645253e-05  0 
 0  0  0 

 -2.132953e-04  -3.513479e-04  0 
 -3.513479e-04  7.975113e-05  0 
 0  0  0 

 2.528073e-05  -5.116234e-04  0 
 -5.116234e-04  5.498369e-05  0 
 0  0  0 

TENSORS element_stresses FLOAT
 -2.333236e-04  -4.931356e-04  0 
 -4.931356e-04  3.982829e-04  0 
 0  0  0 

 -7.664826e-04  -5.293215e-04  0 
 -5.293215e-04  5.575546e-04  0 
 0  0  0 

 -2.208531e-01  -2.658944e-01  0 
 -2.658944e-01  4.398512e-01  0 
 0  0  0 

 -1.446955e-01  -4.142606e-02  0 
 -4.142606e-02  7.804387e-01  0 
 0  0  0 

 -1.490451e-01  1.666300e-02  0 
 1.666300e-02  8.468878e-02  0 
 0  0  0 

 9.551533e-03  8.948284e-02  0 
 8.948284e-02  1.263764e-01  0 
 0  0  0 

 -8.612356e-02  3.425172e-02  0 
 3.425172e-02  7.616623e-01  0 
 0  0  0 

 -1.817821e-01  -2.505578e-01  0 
 -2.505578e-01  3.495622e-01  0 
 0  0  0 

 -5.649969e-02  -7.961157e-02  0 
 -7.961157e-02  1.922757e-01  0 
 0  0  0 

 -3.183930e-02  -1.435174e-01  0 
 -1.435174e-01  1.733048e-01  0 
 0  0  0 

 -1.013440e-01  1.087684e-02  0 
 1.087684e-02  2.437228e-02  0 
 0  0  0 

 4.004380e-03  6.993098e-02  0 
 6.993098e-02  6.316151e-02  0 
 0  0  0 

 -4.777422e-02  -1.434998e-01  0 
 -1.434998e-01  -1.338778e-01  0 
 0  0  0 

 -6.974062e-02  -5.257497e-02  0 
 -5.257497e-02  7.057049e-02  0 
 0  0  0 

 -1.072240e-01  -2.438980e-01  0 
 -2.438980e-01  -2.838168e-01  0 
 0  0  0 

 2.198108e-02  -9.775734e-02  0 
 -9.775734e-02  -1.405300e-01  0 
 0  0  0 

 -5.246531e-05  -2.256207e-04  0 
 -2.256207e-04  4.066215e-04  0 
 0  0  0 

 -9.105755e-05  -2.115349e-04  0 
 -2.115349e-04  5.866033e-05  0 
 0  0  0 

 2.877086e-05  -6.375197e-04  0 
 -6.375197e-04  -1.729500e-04  0 
 0  0  0 

 -1.145141e-04  -2.972744e-04  0 
 -2.972744e-04  1.191185e-04  0 
 0  0  0 

 -1.855333e-04  -8.162329e-04  0 
 -8.162329e-04  -4.447977e-04  0 
 0  0  0 

 -2.016526e-04  -4.573706e-04  0 
 -4.573706e-04  6.103996e-04  0 
 0  0  0 

 -2.029917e-04  -8.037417e-04  0 
 -8.037417e-04  -3.035229e-04  0 
 0  0  0 

 4.716381e-05  -6.999963e-04  0 
 -6.999963e-04  -2.643917e-04  0 
 0  0  0 

 -1.294895e-04  -5.826086e-04  0 
 -5.826086e-04  -6.698513e-07  0 
 0  0  0 

 -2.806479e-04  -5.602769e-04  0 
 -5.602769e-04  7.396530e-04  0 
 0  0  0 

 -1.188393e-04  -5.379032e-04  0 
 -5.379032e-04  5.593715e-04  0 
 0  0  0 

 2.639937e-04  -7.692510e-04  0 
 -7.692510e-04  1.048918e-04  0 
 0  0  0 

 6.264083e-05  -8.691215e-04  0 
 -8.691215e-04  2.360704e-05  0 
 0  0  0 

 -1.946323e-04  -4.983186e-04  0 
 -4.983186e-04  -2.609198e-04  0 
 0  0  0 

 -1.029010e-04  -2.592031e-04  0 
 -2.592031e-04  -2.180714e-04  0 
 0  0  0 

 -2.027568e-04  -4.517285e-04  0 
 -4.517285e-04  1.459232e-04  0 
 0  0  0 

 -1.026535e-04  -4.339110e-04  0 
 -4.339110e-04  -1.030665e-05  0 
 0  0  0 

 -3.162744e-04  -8.027147e-04  0 
 -8.027147e-04  -9.468448e-05  0 
 0  0  0 

 -2.987891e-04  -8.447486e-04  0 
 -8.447486e-04  2.084531e-04  0 
 0  0  0 

 -3.762351e-04  -6.869194e-04  0 
 -6.869194e-04  5.938706e-04  0 
 0  0  0 

 -1.761244e-04  -3.838866e-04  0 
 -3.838866e-04  2.112488e-05  0 
 0  0  0 

 -2.638046e-04  -4.228859e-04  0 
 -4.228859e-04  3.935238e-04  0 
 0  0  0 

 -1.798212e-04  -3.083199e-04  0 
 -3.083199e-04  4.567284e-04  0 
 0  0  0 

 -1.111985e-04  -5.981763e-04  0 
 -5.981763e-04  4.628266e-05  0 
 0  0  0 

 -1.881036e-04  -4.775895e-04  0 
 -4.775895e-04  -4.645253e-05  0 
 0  0  0 

 -2.132953e-04  -3.513479e-04  0 
 -3.513479e-04  7.975113e-05  0 
 0  0  0 

 2.528073e-05  -5.116234e-04  0 
 -5.116234e-04  5.498369e-05  0 
 0  0  0 

