# vtk DataFile Version 3.1
this is an vtk file created by FEMAC
ASCII
DATASET UNSTRUCTURED_GRID
POINTS 32 FLOAT
1.000000 0.000000 0.000000
2.000000 0.000000 0.000000
1.250000 0.000000 0.000000
1.500000 0.000000 0.000000
1.750000 0.000000 0.000000
2.250000 0.000000 0.000000
2.500000 0.000000 0.000000
1.000000 0.250000 0.000000
1.000000 0.500000 0.000000
1.000000 0.750000 0.000000
2.000000 0.250000 0.000000
2.000000 0.500000 0.000000
2.000000 0.750000 0.000000
0.757669 0.416286 0.000000
1.462570 0.272476 0.000000
1.214699 0.660302 0.000000
1.787596 0.660045 0.000000
1.828307 0.162952 0.000000
1.638134 0.825570 0.000000
1.371728 0.825957 0.000000
1.502535 0.594871 0.000000
1.217467 0.400442 0.000000
1.746177 0.372389 0.000000
1.660592 0.165804 0.000000
1.835146 0.847123 0.000000
1.167285 0.847252 0.000000
1.238340 0.153820 0.000000
2.462570 0.272476 0.000000
2.214699 0.660302 0.000000
2.502535 0.594871 0.000000
2.217467 0.400442 0.000000
2.238340 0.153820 0.000000
CELLS 43 172 
3 13  7  8
3 8 15  9
3 16 11 12
3 17  4  1
3 10 17  1
3 20 16 18
3 21 15  8
3 16 22 11
3 20 21 14
3 20 15 21
3 22 20 14
3 16 20 22
3 7 21  8
3 22 10 11
3 17 10 22
3 20 19 15
3 18 19 20
3 17 23  4
3 12 24 16
3 25  9 15
3 23 22 14
3 17 22 23
3 15 19 25
3 18 16 24
3 23  3  4
3 3 23 14
3 2 26  0
3 26  7  0
3 3 26  2
3 21 26 14
3 26 21  7
3 3 14 26
3 11 28 12
3 30 28 11
3 29 30 27
3 29 28 30
3 10 30 11
3 5 31  1
3 31 10  1
3 6 31  5
3 30 31 27
3 31 30 10
3 6 27 31
CELL_TYPES 43
5 5 5 5 5 5 5 5 5 5 5 5 5 5 5 5 5 5 5 5 5 5 5 5 5 5 5 5 5 5 5 5 5 5 5 5 5 5 5 5 5 5 5 
POINT_DATA 32
VECTORS displacement_ITER1 FLOAT
 -5.044317e-03  -3.833942e-02  0 
 -1.318618e-01  -6.706025e-02  0 
 -4.610733e-02  -5.649147e-02  0 
 -7.891119e-02  -7.072358e-02  0 
 -1.034380e-01  -7.803260e-02  0 
 -1.319064e-01  -8.250169e-02  0 
 -1.319468e-01  -9.796765e-02  0 
 -1.083780e-02  -6.054556e-03  0 
 -8.065028e-03  -5.969640e-03  0 
 -1.824935e-02  1.569420e-02  0 
 -1.164233e-01  -6.700086e-02  0 
 -1.009451e-01  -6.692217e-02  0 
 -8.540071e-02  -6.683646e-02  0 
 -8.936029e-03  -3.307023e-03  0 
 -6.157139e-02  -3.784813e-02  0 
 -3.252514e-02  9.364252e-03  0 
 -7.954736e-02  -3.405884e-02  0 
 -1.095493e-01  -6.112704e-02  0 
 -6.184350e-02  -6.187490e-03  0 
 -4.249437e-02  1.558647e-02  0 
 -5.913885e-02  -8.078618e-03  0 
 -2.844044e-02  -1.174329e-02  0 
 -9.180278e-02  -4.440416e-02  0 
 -9.057521e-02  -5.991254e-02  0 
 -6.879163e-02  -3.276831e-02  0 
 -3.210903e-02  1.930549e-02  0 
 -4.004328e-02  -3.370833e-02  0 
 -1.150752e-01  -9.562067e-02  0 
 -9.102516e-02  -8.022574e-02  0 
 -9.512356e-02  -9.808842e-02  0 
 -1.071432e-01  -8.043358e-02  0 
 -1.223979e-01  -8.175172e-02  0 
VECTORS displacement_ITER2 FLOAT
 3.462615e-03  -3.072969e-02  0 
 -7.655635e-02  -4.500478e-02  0 
 -2.359501e-02  -4.719711e-02  0 
 -4.361823e-02  -5.813126e-02  0 
 -5.763839e-02  -5.931300e-02  0 
 -7.659059e-02  -5.079157e-02  0 
 -7.662216e-02  -5.659945e-02  0 
 1.433788e-03  -9.492365e-03  0 
 8.146098e-03  -9.425056e-03  0 
 4.731568e-03  1.187488e-02  0 
 -7.077387e-02  -4.496217e-02  0 
 -6.494528e-02  -4.488617e-02  0 
 -5.903662e-02  -4.476711e-02  0 
 5.944817e-03  -2.928639e-03  0 
 -3.311560e-02  -3.790826e-02  0 
 -1.194078e-02  -2.554982e-03  0 
 -5.051381e-02  -3.421102e-02  0 
 -6.430681e-02  -4.651882e-02  0 
 -3.980643e-02  -2.459817e-02  0 
 -2.029266e-02  -1.591840e-03  0 
 -3.511268e-02  -2.048685e-02  0 
 -1.009103e-02  -1.941449e-02  0 
 -5.530061e-02  -3.887157e-02  0 
 -5.184017e-02  -5.003171e-02  0 
 -4.827963e-02  -3.459773e-02  0 
 -7.561546e-03  8.888671e-03  0 
 -1.893363e-02  -3.294665e-02  0 
 -7.027880e-02  -5.570459e-02  0 
 -6.122624e-02  -4.987577e-02  0 
 -6.281160e-02  -5.662511e-02  0 
 -6.730133e-02  -4.999615e-02  0 
 -7.302309e-02  -5.049830e-02  0 
VECTORS displacement_ITER3 FLOAT
 -1.281103e-02  8.230915e-04  0 
 -5.056812e-02  -1.319939e-02  0 
 -1.980137e-02  -1.891837e-02  0 
 -2.625253e-02  -2.897429e-02  0 
 -3.521038e-02  -2.622746e-02  0 
 -5.059992e-02  -1.918108e-02  0 
 -5.062782e-02  -2.519117e-02  0 
 3.372964e-03  1.725062e-03  0 
 9.704874e-03  1.750076e-03  0 
 3.190687e-04  4.351063e-03  0 
 -4.460092e-02  -1.317094e-02  0 
 -3.858708e-02  -1.308599e-02  0 
 -3.238816e-02  -1.289480e-02  0 
 7.611591e-03  7.894521e-03  0 
 -1.946932e-02  -1.601037e-02  0 
 -4.461154e-03  4.080305e-03  0 
 -2.832888e-02  -9.035347e-03  0 
 -4.057745e-02  -1.574898e-02  0 
 -2.287471e-02  -6.872641e-03  0 
 -1.127292e-02  4.731202e-03  0 
 -1.925905e-02  -3.977654e-03  0 
 -3.212169e-03  -5.606499e-03  0 
 -3.348808e-02  -1.205833e-02  0 
 -3.189723e-02  -2.099578e-02  0 
 -2.767782e-02  -1.010027e-02  0 
 -6.797762e-03  4.459366e-03  0 
 -1.102629e-02  -1.533398e-02  0 
 -4.408103e-02  -2.424291e-02  0 
 -3.472918e-02  -1.825796e-02  0 
 -3.638378e-02  -2.520043e-02  0 
 -4.101658e-02  -1.837012e-02  0 
 -4.691096e-02  -1.887954e-02  0 
VECTORS displacement_ITER4 FLOAT
 3.620022e-03  3.794608e-03  0 
 -2.229907e-02  -2.475062e-03  0 
 -3.738902e-03  -2.794493e-03  0 
 -9.770132e-03  -5.864185e-03  0 
 -1.553679e-02  -5.826931e-03  0 
 -2.230351e-02  -6.310247e-03  0 
 -2.230070e-02  -1.015008e-02  0 
 5.149101e-03  6.457704e-03  0 
 -3.780981e-03  6.455958e-03  0 
 -5.384441e-03  -4.102477e-03  0 
 -1.847300e-02  -2.459276e-03  0 
 -1.458186e-02  -2.359498e-03  0 
 -1.038747e-02  -2.092671e-03  0 
 -7.888774e-04  -2.200693e-03  0 
 -7.706236e-03  1.764872e-03  0 
 -3.837102e-03  2.606918e-03  0 
 -9.150826e-03  1.117805e-03  0 
 -1.711219e-02  -1.953938e-03  0 
 -6.588152e-03  1.606923e-03  0 
 -5.998656e-03  2.107082e-03  0 
 -6.057732e-03  3.864340e-03  0 
 -2.684558e-03  6.402433e-03  0 
 -1.260530e-02  3.036652e-04  0 
 -1.332122e-02  -2.134750e-03  0 
 -7.337455e-03  6.716407e-04  0 
 -7.516952e-03  -1.749813e-03  0 
 -1.462489e-03  1.070404e-03  0 
 -1.812252e-02  -9.577667e-03  0 
 -1.205775e-02  -5.748463e-03  0 
 -1.318216e-02  -1.023467e-02  0 
 -1.616714e-02  -5.819325e-03  0 
 -1.994698e-02  -6.130337e-03  0 
VECTORS displacement_ITER5 FLOAT
 2.364391e-03  3.392875e-03  0 
 -8.948777e-03  -8.382626e-04  0 
 -1.742901e-03  -8.179972e-04  0 
 -4.113205e-03  -2.622947e-03  0 
 -5.840357e-03  -3.063504e-03  0 
 -8.954046e-03  -2.416635e-03  0 
 -8.961157e-03  -3.992832e-03  0 
 -2.167801e-03  5.391607e-04  0 
 3.631195e-03  5.437086e-04  0 
 -2.708203e-03  -5.157131e-03  0 
 -7.375808e-03  -8.326261e-04  0 
 -5.771745e-03  -8.083051e-04  0 
 -4.141307e-03  -7.292707e-04  0 
 1.693168e-03  6.169708e-03  0 
 -1.956977e-03  -5.429344e-04  0 
 1.878152e-04  1.209740e-03  0 
 -3.709440e-03  2.829937e-04  0 
 -6.608443e-03  -1.045456e-03  0 
 -2.306980e-03  8.225244e-04  0 
 -1.835304e-03  1.907889e-03  0 
 -2.470172e-03  1.177109e-03  0 
 -1.225816e-04  -9.861732e-04  0 
 -4.847415e-03  2.133694e-05  0 
 -4.698621e-03  -1.780084e-03  0 
 -2.984634e-03  3.211133e-05  0 
 -3.617563e-03  -1.825602e-03  0 
 -9.800737e-04  9.673017e-04  0 
 -7.206622e-03  -3.789976e-03  0 
 -4.761725e-03  -2.170507e-03  0 
 -5.196650e-03  -4.066480e-03  0 
 -6.418529e-03  -2.222574e-03  0 
 -7.982143e-03  -2.339492e-03  0 
VECTORS displacement_ITER6 FLOAT
 9.907090e-04  1.421838e-03  0 
 -6.064117e-03  -4.747293e-04  0 
 -1.095198e-03  -1.114964e-03  0 
 -2.545321e-03  -2.029879e-03  0 
 -3.990098e-03  -1.864384e-03  0 
 -6.072142e-03  -1.533985e-03  0 
 -6.081567e-03  -2.602005e-03  0 
 -1.436142e-04  -1.764760e-04  0 
 -3.966489e-05  -1.607538e-04  0 
 -3.092475e-04  1.502326e-04  0 
 -5.015993e-03  -4.784475e-04  0 
 -3.960770e-03  -4.665839e-04  0 
 -2.875719e-03  -4.003892e-04  0 
 -7.093654e-05  -7.023230e-05  0 
 -1.838355e-03  -2.095160e-04  0 
 -1.057016e-03  1.229379e-04  0 
 -2.537868e-03  -2.592795e-05  0 
 -4.570694e-03  -5.730343e-04  0 
 -1.528096e-03  -7.929260e-07  0 
 -1.494296e-03  -9.164496e-05  0 
 -1.887012e-03  4.629500e-04  0 
 -7.972544e-04  -4.575686e-05  0 
 -3.412777e-03  -3.861929e-05  0 
 -3.429104e-03  -9.777967e-04  0 
 -1.950879e-03  -1.380482e-04  0 
 -9.779474e-04  1.857326e-04  0 
 -4.309263e-04  -1.682784e-04  0 
 -4.900072e-03  -2.442861e-03  0 
 -3.287340e-03  -1.383323e-03  0 
 -3.547190e-03  -2.658908e-03  0 
 -4.382501e-03  -1.400726e-03  0 
 -5.416059e-03  -1.477857e-03  0 
VECTORS displacement_ITER7 FLOAT
 6.383749e-04  1.008957e-03  0 
 -4.072395e-03  -8.540119e-04  0 
 -8.076397e-04  -1.018754e-03  0 
 -1.792748e-03  -1.812270e-03  0 
 -2.761591e-03  -1.735892e-03  0 
 -4.071300e-03  -1.438658e-03  0 
 -4.065884e-03  -2.026079e-03  0 
 8.497194e-05  -1.998207e-04  0 
 2.628650e-06  -1.667685e-04  0 
 5.703425e-05  5.682586e-04  0 
 -3.491635e-03  -8.506126e-04  0 
 -2.892542e-03  -8.116647e-04  0 
 -2.198526e-03  -7.139024e-04  0 
 3.619848e-05  -2.682658e-04  0 
 -1.259878e-03  -4.769657e-04  0 
 -7.911157e-04  -7.328476e-05  0 
 -1.937583e-03  -2.857685e-04  0 
 -3.155479e-03  -9.040615e-04  0 
 -1.445301e-03  -2.472360e-04  0 
 -1.227715e-03  -2.953270e-04  0 
 -1.375178e-03  1.015760e-05  0 
 -5.071585e-04  -1.911159e-04  0 
 -2.405004e-03  -4.608430e-04  0 
 -2.383670e-03  -1.121062e-03  0 
 -1.605960e-03  -3.219731e-04  0 
 -6.974864e-04  2.151769e-04  0 
 -2.331461e-04  -3.731590e-04  0 
 -3.432212e-03  -1.944391e-03  0 
 -2.483677e-03  -1.372479e-03  0 
 -2.649040e-03  -2.102939e-03  0 
 -3.141973e-03  -1.368207e-03  0 
 -3.713646e-03  -1.413078e-03  0 
VECTORS displacement_ITER8 FLOAT
 -5.235710e-05  3.453017e-05  0 
 -3.420787e-03  -1.301886e-03  0 
 -1.131957e-03  -1.064939e-03  0 
 -1.911342e-03  -1.665015e-03  0 
 -2.554037e-03  -1.804657e-03  0 
 -3.420401e-03  -1.787349e-03  0 
 -3.416830e-03  -2.276001e-03  0 
 -1.538459e-04  2.043984e-04  0 
 -2.228101e-04  2.241853e-04  0 
 1.033173e-04  -2.077275e-04  0 
 -2.938529e-03  -1.300062e-03  0 
 -2.448859e-03  -1.274832e-03  0 
 -1.893069e-03  -1.185815e-03  0 
 -1.949440e-04  1.409102e-04  0 
 -1.372142e-03  -7.636624e-04  0 
 -4.082422e-04  -2.898192e-04  0 
 -1.594208e-03  -7.240295e-04  0 
 -2.729674e-03  -1.296376e-03  0 
 -9.966159e-04  -4.349124e-04  0 
 -7.356404e-04  -4.521958e-04  0 
 -1.002625e-03  -3.854170e-04  0 
 -5.838935e-04  -1.557516e-04  0 
 -2.087776e-03  -9.884806e-04  0 
 -2.203776e-03  -1.341292e-03  0 
 -1.211467e-03  -6.106876e-04  0 
 -4.946311e-04  -3.237818e-04  0 
 -7.828892e-04  -5.241483e-04  0 
 -2.887968e-03  -2.208762e-03  0 
 -2.123513e-03  -1.726567e-03  0 
 -2.254871e-03  -2.317039e-03  0 
 -2.648863e-03  -1.727616e-03  0 
 -3.122817e-03  -1.765519e-03  0 
VECTORS displacement_ITER9 FLOAT
 -8.617620e-05  -1.703290e-04  0 
 -3.379614e-03  -1.215522e-03  0 
 -1.025197e-03  -1.238081e-03  0 
 -1.755937e-03  -1.784390e-03  0 
 -2.442274e-03  -1.802790e-03  0 
 -3.379017e-03  -1.683400e-03  0 
 -3.375438e-03  -2.153466e-03  0 
 6.422528e-05  -5.468791e-05  0 
 3.620246e-06  -3.565174e-05  0 
 -1.794523e-04  9.319465e-05  0 
 -2.915034e-03  -1.213461e-03  0 
 -2.439757e-03  -1.187018e-03  0 
 -1.902087e-03  -1.099928e-03  0 
 2.902375e-05  -1.123404e-04  0 
 -1.306162e-03  -8.407325e-04  0 
 -5.469462e-04  -5.995840e-05  0 
 -1.648663e-03  -7.202903e-04  0 
 -2.689272e-03  -1.223552e-03  0 
 -1.069590e-03  -4.348793e-04  0 
 -7.680344e-04  -2.188222e-04  0 
 -1.138226e-03  -2.772508e-04  0 
 -4.600725e-04  -2.525056e-04  0 
 -2.117847e-03  -9.004943e-04  0 
 -2.135066e-03  -1.347225e-03  0 
 -1.316898e-03  -7.187098e-04  0 
 -5.682166e-04  -7.614046e-05  0 
 -6.466251e-04  -7.581048e-04  0 
 -2.863472e-03  -2.093180e-03  0 
 -2.124020e-03  -1.625391e-03  0 
 -2.251050e-03  -2.205690e-03  0 
 -2.634696e-03  -1.627700e-03  0 
 -3.092468e-03  -1.662603e-03  0 
VECTORS displacement_ITER10 FLOAT
 4.742139e-05  1.193076e-05  0 
 -3.345667e-03  -1.211229e-03  0 
 -9.910843e-04  -1.146971e-03  0 
 -1.754333e-03  -1.718411e-03  0 
 -2.433660e-03  -1.769539e-03  0 
 -3.344790e-03  -1.666462e-03  0 
 -3.340870e-03  -2.123473e-03  0 
 -5.113881e-05  -6.947609e-05  0 
 -5.503320e-05  -5.097815e-05  0 
 -1.405225e-04  -1.474069e-05  0 
 -2.893660e-03  -1.209023e-03  0 
 -2.429936e-03  -1.181433e-03  0 
 -1.906545e-03  -1.096182e-03  0 
 -4.803653e-05  -7.092791e-05  0 
 -1.282155e-03  -7.710261e-04  0 
 -5.258213e-04  -6.941212e-05  0 
 -1.664800e-03  -6.990141e-04  0 
 -2.667485e-03  -1.208980e-03  0 
 -1.106383e-03  -3.870552e-04  0 
 -7.707493e-04  -1.346101e-04  0 
 -1.148753e-03  -2.642807e-04  0 
 -5.091739e-04  -2.541812e-04  0 
 -2.094586e-03  -8.747566e-04  0 
 -2.117685e-03  -1.308851e-03  0 
 -1.355203e-03  -7.187898e-04  0 
 -5.795985e-04  -6.430294e-05  0 
 -6.204736e-04  -6.336808e-04  0 
 -2.843221e-03  -2.065577e-03  0 
 -2.120110e-03  -1.612248e-03  0 
 -2.244820e-03  -2.178693e-03  0 
 -2.620650e-03  -1.612975e-03  0 
 -3.066215e-03  -1.646510e-03  0 
VECTORS displacement_ITER11 FLOAT
 -1.085305e-05  -6.042861e-05  0 
 -3.339762e-03  -1.205279e-03  0 
 -1.007260e-03  -1.170717e-03  0 
 -1.752913e-03  -1.725801e-03  0 
 -2.428006e-03  -1.768119e-03  0 
 -3.339408e-03  -1.662845e-03  0 
 -3.336431e-03  -2.122498e-03  0 
 -3.012715e-05  -6.560470e-05  0 
 -5.584375e-05  -4.526046e-05  0 
 -1.276986e-04  -1.575739e-05  0 
 -2.886139e-03  -1.203792e-03  0 
 -2.420555e-03  -1.177256e-03  0 
 -1.895736e-03  -1.092766e-03  0 
 -4.092423e-05  -8.804713e-05  0 
 -1.291816e-03  -7.922750e-04  0 
 -5.148601e-04  -8.227958e-05  0 
 -1.652310e-03  -6.896037e-04  0 
 -2.662408e-03  -1.207583e-03  0 
 -1.107495e-03  -3.986376e-04  0 
 -7.517891e-04  -1.575257e-04  0 
 -1.135602e-03  -2.825251e-04  0 
 -5.038015e-04  -2.574626e-04  0 
 -2.089748e-03  -8.805998e-04  0 
 -2.116236e-03  -1.312593e-03  0 
 -1.310576e-03  -6.994907e-04  0 
 -5.362012e-04  -6.944497e-05  0 
 -6.406127e-04  -6.726147e-04  0 
 -2.834520e-03  -2.063206e-03  0 
 -2.110972e-03  -1.607189e-03  0 
 -2.237191e-03  -2.174862e-03  0 
 -2.611819e-03  -1.609489e-03  0 
 -3.058978e-03  -1.642277e-03  0 
VECTORS displacement_ITER12 FLOAT
 -2.305834e-05  -7.267296e-05  0 
 -3.340563e-03  -1.205400e-03  0 
 -1.012629e-03  -1.172545e-03  0 
 -1.755830e-03  -1.724637e-03  0 
 -2.429867e-03  -1.766963e-03  0 
 -3.340078e-03  -1.662657e-03  0 
 -3.336806e-03  -2.122052e-03  0 
 -3.040068e-05  -6.292844e-05  0 
 -5.549534e-05  -4.332584e-05  0 
 -1.399700e-04  -1.682391e-05  0 
 -2.887115e-03  -1.203763e-03  0 
 -2.421431e-03  -1.176583e-03  0 
 -1.896158e-03  -1.092766e-03  0 
 -4.086582e-05  -8.479065e-05  0 
 -1.295375e-03  -7.934469e-04  0 
 -5.178248e-04  -8.167780e-05  0 
 -1.649124e-03  -6.880788e-04  0 
 -2.663873e-03  -1.207036e-03  0 
 -1.097047e-03  -3.995503e-04  0 
 -7.549863e-04  -1.565203e-04  0 
 -1.135498e-03  -2.774587e-04  0 
 -5.035499e-04  -2.560798e-04  0 
 -2.092210e-03  -8.798247e-04  0 
 -2.118324e-03  -1.312038e-03  0 
 -1.315142e-03  -6.798123e-04  0 
 -5.211005e-04  -7.037422e-05  0 
 -6.471467e-04  -6.765633e-04  0 
 -2.835831e-03  -2.062827e-03  0 
 -2.111181e-03  -1.607065e-03  0 
 -2.237102e-03  -2.176515e-03  0 
 -2.613074e-03  -1.609157e-03  0 
 -3.059939e-03  -1.642230e-03  0 
VECTORS displacement_ITER13 FLOAT
 -2.279596e-05  -7.249022e-05  0 
 -3.340423e-03  -1.205049e-03  0 
 -1.012309e-03  -1.172711e-03  0 
 -1.755397e-03  -1.724790e-03  0 
 -2.429476e-03  -1.766900e-03  0 
 -3.339897e-03  -1.662295e-03  0 
 -3.336587e-03  -2.121581e-03  0 
 -3.006897e-05  -6.295227e-05  0 
 -5.543457e-05  -4.325677e-05  0 
 -1.387728e-04  -1.647268e-05  0 
 -2.886891e-03  -1.203334e-03  0 
 -2.421214e-03  -1.176273e-03  0 
 -1.895910e-03  -1.092300e-03  0 
 -4.088825e-05  -8.461842e-05  0 
 -1.295026e-03  -7.936689e-04  0 
 -5.177784e-04  -8.337200e-05  0 
 -1.649359e-03  -6.876661e-04  0 
 -2.663594e-03  -1.206786e-03  0 
 -1.098894e-03  -3.995099e-04  0 
 -7.568461e-04  -1.576626e-04  0 
 -1.135413e-03  -2.779410e-04  0 
 -5.033420e-04  -2.566436e-04  0 
 -2.091915e-03  -8.796654e-04  0 
 -2.117974e-03  -1.312013e-03  0 
 -1.321499e-03  -6.777398e-04  0 
 -5.129320e-04  -6.794490e-05  0 
 -6.467761e-04  -6.768213e-04  0 
 -2.835645e-03  -2.062612e-03  0 
 -2.111019e-03  -1.606761e-03  0 
 -2.236859e-03  -2.175903e-03  0 
 -2.612774e-03  -1.608788e-03  0 
 -3.059800e-03  -1.641908e-03  0 
VECTORS displacement_ITER14 FLOAT
 -2.283266e-05  -7.252348e-05  0 
 -3.340528e-03  -1.205028e-03  0 
 -1.012348e-03  -1.172751e-03  0 
 -1.755450e-03  -1.724844e-03  0 
 -2.429541e-03  -1.766941e-03  0 
 -3.340006e-03  -1.662310e-03  0 
 -3.336699e-03  -2.121640e-03  0 
 -3.006740e-05  -6.298788e-05  0 
 -5.543612e-05  -4.331325e-05  0 
 -1.387998e-04  -1.677266e-05  0 
 -2.886968e-03  -1.203318e-03  0 
 -2.421258e-03  -1.176250e-03  0 
 -1.895922e-03  -1.092283e-03  0 
 -4.092026e-05  -8.463185e-05  0 
 -1.295069e-03  -7.936963e-04  0 
 -5.178098e-04  -8.332728e-05  0 
 -1.649661e-03  -6.876762e-04  0 
 -2.663665e-03  -1.206808e-03  0 
 -1.099189e-03  -3.986342e-04  0 
 -7.567045e-04  -1.580142e-04  0 
 -1.135348e-03  -2.779790e-04  0 
 -5.033434e-04  -2.566246e-04  0 
 -2.091944e-03  -8.797396e-04  0 
 -2.118039e-03  -1.312055e-03  0 
 -1.321463e-03  -6.788272e-04  0 
 -5.128214e-04  -6.749239e-05  0 
 -6.468021e-04  -6.768540e-04  0 
 -2.835717e-03  -2.062644e-03  0 
 -2.111039e-03  -1.606768e-03  0 
 -2.236890e-03  -2.175964e-03  0 
 -2.612835e-03  -1.608797e-03  0 
 -3.059884e-03  -1.641918e-03  0 
CELL_DATA 43
TENSORS element_stresses FLOAT
 -1.358987e-03  3.218709e-02  0 
 3.218709e-02  7.829084e-02  0 
 0  0  0 

 -2.057997e-03  -4.608402e-04  0 
 -4.608402e-04  -5.112366e-04  0 
 0  0  0 

 -2.141295e-03  4.169812e-05  0 
 4.169812e-05  -3.065231e-04  0 
 0  0  0 

 -3.227206e-03  1.970763e-03  0 
 1.970763e-03  1.389143e-03  0 
 0  0  0 

 -2.437758e-03  1.408539e-03  0 
 1.408539e-03  -7.244886e-04  0 
 0  0  0 

 -2.213407e-03  -8.924984e-05  0 
 -8.924984e-05  -2.922975e-04  0 
 0  0  0 

 -2.085126e-03  -5.822225e-04  0 
 -5.822225e-04  3.411557e-05  0 
 0  0  0 

 -2.155676e-03  1.828492e-04  0 
 1.828492e-04  2.544189e-04  0 
 0  0  0 

 -2.487519e-03  -3.324914e-04  0 
 -3.324914e-04  1.011270e-03  0 
 0  0  0 

 -2.159295e-03  -4.651199e-04  0 
 -4.651199e-04  1.349457e-05  0 
 0  0  0 

 -2.864827e-03  -1.866645e-05  0 
 -1.866645e-05  8.525710e-04  0 
 0  0  0 

 -2.151442e-03  1.650098e-04  0 
 1.650098e-04  2.589686e-04  0 
 0  0  0 

 -2.288462e-03  -8.048736e-04  0 
 -8.048736e-04  -6.078402e-04  0 
 0  0  0 

 -2.419215e-03  4.924797e-04  0 
 4.924797e-04  -6.174905e-04  0 
 0  0  0 

 -2.029206e-03  9.293398e-04  0 
 9.293398e-04  7.005450e-04  0 
 0  0  0 

 -2.184467e-03  -1.184292e-04  0 
 -1.184292e-04  -4.988692e-04  0 
 0  0  0 

 -1.408662e-03  6.456578e-06  0 
 6.456578e-06  -4.147194e-04  0 
 0  0  0 

 -2.547280e-03  6.200059e-04  0 
 6.200059e-04  2.346258e-03  0 
 0  0  0 

 -2.146359e-03  1.069777e-04  0 
 1.069777e-04  -4.832490e-05  0 
 0  0  0 

 -2.153865e-03  -5.985168e-04  0 
 -5.985168e-04  -6.393556e-04  0 
 0  0  0 

 -2.816287e-03  2.249395e-04  0 
 2.249395e-04  1.752568e-03  0 
 0  0  0 

 -2.947737e-03  1.632518e-03  0 
 1.632518e-03  9.355461e-04  0 
 0  0  0 

 -1.352672e-03  -5.608219e-04  0 
 -5.608219e-04  -4.341431e-04  0 
 0  0  0 

 -1.353590e-03  4.855911e-04  0 
 4.855911e-04  1.440341e-05  0 
 0  0  0 

 -2.088512e-03  1.972002e-04  0 
 1.972002e-04  2.026171e-03  0 
 0  0  0 

 -2.763205e-03  2.840438e-04  0 
 2.840438e-04  2.473160e-03  0 
 0  0  0 

 -3.396684e-03  -1.788072e-03  0 
 -1.788072e-03  1.871265e-03  0 
 0  0  0 

 -2.843809e-03  -1.991648e-03  0 
 -1.991648e-03  -8.150003e-04  0 
 0  0  0 

 -2.258751e-03  -4.402902e-05  0 
 -4.402902e-05  2.378853e-03  0 
 0  0  0 

 -2.840837e-03  -7.993878e-04  0 
 -7.993878e-04  7.364401e-04  0 
 0  0  0 

 -2.169823e-03  -1.214784e-03  0 
 -1.214784e-03  8.875598e-04  0 
 0  0  0 

 -2.849401e-03  -7.436204e-04  0 
 -7.436204e-04  2.264223e-03  0 
 0  0  0 

 -2.557494e-02  -1.189572e-01  0 
 -1.189572e-01  3.281930e-01  0 
 0  0  0 

 -1.015542e-03  -4.932505e-02  0 
 -4.932505e-02  -1.375118e-02  0 
 0  0  0 

 2.458200e-02  -4.697039e-02  0 
 -4.697039e-02  -1.071684e-01  0 
 0  0  0 

 -2.479672e-03  -3.806022e-02  0 
 -3.806022e-02  -1.403423e-02  0 
 0  0  0 

 4.790705e-03  -5.893800e-02  0 
 -5.893800e-02  1.097113e-01  0 
 0  0  0 

 2.888616e-04  -6.050096e-03  0 
 -6.050096e-03  -6.001299e-03  0 
 0  0  0 

 9.530850e-03  -1.786945e-02  0 
 -1.786945e-02  9.697963e-03  0 
 0  0  0 

 1.232520e-02  -1.169825e-02  0 
 -1.169825e-02  -3.011023e-03  0 
 0  0  0 

 3.485782e-02  -3.687354e-02  0 
 -3.687354e-02  -1.299172e-02  0 
 0  0  0 

 -5.000142e-04  -2.767641e-02  0 
 -2.767641e-02  -2.235403e-02  0 
 0  0  0 

 1.474745e-02  -1.070645e-02  0 
 -1.070645e-02  -3.401593e-02  0 
 0  0  0 

TENSORS element_stresses FLOAT
 -1.358987e-03  3.218709e-02  0 
 3.218709e-02  7.829084e-02  0 
 0  0  0 

 -2.057997e-03  -4.608402e-04  0 
 -4.608402e-04  -5.112366e-04  0 
 0  0  0 

 -2.141295e-03  4.169812e-05  0 
 4.169812e-05  -3.065231e-04  0 
 0  0  0 

 -3.227206e-03  1.970763e-03  0 
 1.970763e-03  1.389143e-03  0 
 0  0  0 

 -2.437758e-03  1.408539e-03  0 
 1.408539e-03  -7.244886e-04  0 
 0  0  0 

 -2.213407e-03  -8.924984e-05  0 
 -8.924984e-05  -2.922975e-04  0 
 0  0  0 

 -2.085126e-03  -5.822225e-04  0 
 -5.822225e-04  3.411557e-05  0 
 0  0  0 

 -2.155676e-03  1.828492e-04  0 
 1.828492e-04  2.544189e-04  0 
 0  0  0 

 -2.487519e-03  -3.324914e-04  0 
 -3.324914e-04  1.011270e-03  0 
 0  0  0 

 -2.159295e-03  -4.651199e-04  0 
 -4.651199e-04  1.349457e-05  0 
 0  0  0 

 -2.864827e-03  -1.866645e-05  0 
 -1.866645e-05  8.525710e-04  0 
 0  0  0 

 -2.151442e-03  1.650098e-04  0 
 1.650098e-04  2.589686e-04  0 
 0  0  0 

 -2.288462e-03  -8.048736e-04  0 
 -8.048736e-04  -6.078402e-04  0 
 0  0  0 

 -2.419215e-03  4.924797e-04  0 
 4.924797e-04  -6.174905e-04  0 
 0  0  0 

 -2.029206e-03  9.293398e-04  0 
 9.293398e-04  7.005450e-04  0 
 0  0  0 

 -2.184467e-03  -1.184292e-04  0 
 -1.184292e-04  -4.988692e-04  0 
 0  0  0 

 -1.408662e-03  6.456578e-06  0 
 6.456578e-06  -4.147194e-04  0 
 0  0  0 

 -2.547280e-03  6.200059e-04  0 
 6.200059e-04  2.346258e-03  0 
 0  0  0 

 -2.146359e-03  1.069777e-04  0 
 1.069777e-04  -4.832490e-05  0 
 0  0  0 

 -2.153865e-03  -5.985168e-04  0 
 -5.985168e-04  -6.393556e-04  0 
 0  0  0 

 -2.816287e-03  2.249395e-04  0 
 2.249395e-04  1.752568e-03  0 
 0  0  0 

 -2.947737e-03  1.632518e-03  0 
 1.632518e-03  9.355461e-04  0 
 0  0  0 

 -1.352672e-03  -5.608219e-04  0 
 -5.608219e-04  -4.341431e-04  0 
 0  0  0 

 -1.353590e-03  4.855911e-04  0 
 4.855911e-04  1.440341e-05  0 
 0  0  0 

 -2.088512e-03  1.972002e-04  0 
 1.972002e-04  2.026171e-03  0 
 0  0  0 

 -2.763205e-03  2.840438e-04  0 
 2.840438e-04  2.473160e-03  0 
 0  0  0 

 -3.396684e-03  -1.788072e-03  0 
 -1.788072e-03  1.871265e-03  0 
 0  0  0 

 -2.843809e-03  -1.991648e-03  0 
 -1.991648e-03  -8.150003e-04  0 
 0  0  0 

 -2.258751e-03  -4.402902e-05  0 
 -4.402902e-05  2.378853e-03  0 
 0  0  0 

 -2.840837e-03  -7.993878e-04  0 
 -7.993878e-04  7.364401e-04  0 
 0  0  0 

 -2.169823e-03  -1.214784e-03  0 
 -1.214784e-03  8.875598e-04  0 
 0  0  0 

 -2.849401e-03  -7.436204e-04  0 
 -7.436204e-04  2.264223e-03  0 
 0  0  0 

 -2.557494e-02  -1.189572e-01  0 
 -1.189572e-01  3.281930e-01  0 
 0  0  0 

 -1.015542e-03  -4.932505e-02  0 
 -4.932505e-02  -1.375118e-02  0 
 0  0  0 

 2.458200e-02  -4.697039e-02  0 
 -4.697039e-02  -1.071684e-01  0 
 0  0  0 

 -2.479672e-03  -3.806022e-02  0 
 -3.806022e-02  -1.403423e-02  0 
 0  0  0 

 4.790705e-03  -5.893800e-02  0 
 -5.893800e-02  1.097113e-01  0 
 0  0  0 

 2.888616e-04  -6.050096e-03  0 
 -6.050096e-03  -6.001299e-03  0 
 0  0  0 

 9.530850e-03  -1.786945e-02  0 
 -1.786945e-02  9.697963e-03  0 
 0  0  0 

 1.232520e-02  -1.169825e-02  0 
 -1.169825e-02  -3.011023e-03  0 
 0  0  0 

 3.485782e-02  -3.687354e-02  0 
 -3.687354e-02  -1.299172e-02  0 
 0  0  0 

 -5.000142e-04  -2.767641e-02  0 
 -2.767641e-02  -2.235403e-02  0 
 0  0  0 

 1.474745e-02  -1.070645e-02  0 
 -1.070645e-02  -3.401593e-02  0 
 0  0  0 

