# vtk DataFile Version 3.1
this is an vtk file created by FEMAC
ASCII
DATASET UNSTRUCTURED_GRID
POINTS 31 FLOAT
4.000000 2.000000 0.000000
4.000000 3.000000 0.000000
3.750000 2.000000 0.000000
4.000000 1.500000 0.000000
4.000000 1.750000 0.000000
4.000000 2.250000 0.000000
4.000000 2.500000 0.000000
4.000000 2.750000 0.000000
4.250000 2.000000 0.000000
4.500000 2.000000 0.000000
3.817501 1.632951 0.000000
3.842898 1.835270 0.000000
3.786897 2.360864 0.000000
3.749641 2.630999 0.000000
3.828962 2.840667 0.000000
3.836478 2.155331 0.000000
4.654136 1.816702 0.000000
4.195291 1.666492 0.000000
4.225000 1.500000 0.000000
4.384426 1.792836 0.000000
4.358519 1.602133 0.000000
4.544074 1.619719 0.000000
4.165943 1.841866 0.000000
4.325972 2.178472 0.000000
4.500000 2.225000 0.000000
4.171968 2.341551 0.000000
4.216647 2.581177 0.000000
4.399662 2.398247 0.000000
4.507893 2.661856 0.000000
4.245757 2.832172 0.000000
4.149588 2.154005 0.000000
CELLS 42 168 
3 4 10  3
3 2 11  0
3 11  4  0
3 11 10  4
3 6 12  5
3 14  7  1
3 15  2  0
3 15  5 12
3 5 15  0
3 13 12  6
3 13  6  7
3 7 14 13
3 3 17  4
3 18 17  3
3 20 17 18
3 8 19  9
3 19 16  9
3 21 16 19
3 17 20 19
3 19 20 21
3 4 22  0
3 22  8  0
3 22  4 17
3 22 19  8
3 17 19 22
3 9 23  8
3 24 23  9
3 27 23 24
3 5 25  6
3 26  7  6
3 27 25 23
3 7 29  1
3 30  5  0
3 30  8 23
3 8 30  0
3 26 29  7
3 30 25  5
3 23 25 30
3 6 25 26
3 26 25 27
3 27 28 26
3 26 28 29
CELL_TYPES 42
5 5 5 5 5 5 5 5 5 5 5 5 5 5 5 5 5 5 5 5 5 5 5 5 5 5 5 5 5 5 5 5 5 5 5 5 5 5 5 5 5 5 
POINT_DATA 31
VECTORS displacement_ITER1 FLOAT
 -5.216765e-02  -2.192936e-01  0 
 7.495717e-03  -2.192796e-01  0 
 -5.213041e-02  -2.102013e-01  0 
 -7.005433e-02  -2.192046e-01  0 
 -6.113386e-02  -2.192154e-01  0 
 -3.726116e-02  -2.193332e-01  0 
 -2.235175e-02  -2.193321e-01  0 
 -7.433165e-03  -2.193095e-01  0 
 -5.218022e-02  -2.342670e-01  0 
 -5.219187e-02  -2.492228e-01  0 
 -6.531117e-02  -2.126839e-01  0 
 -5.810031e-02  -2.136029e-01  0 
 -3.085398e-02  -1.994540e-01  0 
 -1.407736e-02  -1.947094e-01  0 
 -3.886894e-04  -2.008488e-01  0 
 -4.381920e-02  -2.065861e-01  0 
 -6.423303e-02  -2.776451e-01  0 
 -6.408001e-02  -2.324773e-01  0 
 -7.080468e-02  -2.346608e-01  0 
 -5.694084e-02  -2.494334e-01  0 
 -6.788796e-02  -2.482672e-01  0 
 -6.796014e-02  -2.800399e-01  0 
 -5.643234e-02  -2.306985e-01  0 
 -4.152211e-02  -2.387979e-01  0 
 -3.875320e-02  -2.491957e-01  0 
 -3.179947e-02  -2.295981e-01  0 
 -1.751556e-02  -2.322621e-01  0 
 -2.842174e-02  -2.431912e-01  0 
 -1.271137e-02  -2.496539e-01  0 
 -2.537502e-03  -2.339870e-01  0 
 -4.297762e-02  -2.282541e-01  0 
VECTORS displacement_ITER2 FLOAT
 -2.765803e-02  -1.059139e-01  0 
 8.607210e-03  -1.059318e-01  0 
 -2.753946e-02  -1.054578e-01  0 
 -2.789059e-02  -1.057312e-01  0 
 -2.782290e-02  -1.057659e-01  0 
 -1.864779e-02  -1.059916e-01  0 
 -9.583597e-03  -1.059951e-01  0 
 -4.950163e-04  -1.059692e-01  0 
 -2.771305e-02  -1.150780e-01  0 
 -2.774054e-02  -1.242099e-01  0 
 -2.786068e-02  -1.056777e-01  0 
 -2.780625e-02  -1.057007e-01  0 
 -1.560458e-02  -9.315382e-02  0 
 -5.628304e-03  -9.010886e-02  0 
 2.824748e-03  -9.436237e-02  0 
 -2.374975e-02  -9.867394e-02  0 
 -3.091244e-02  -1.339927e-01  0 
 -2.951231e-02  -1.120978e-01  0 
 -3.290386e-02  -1.159430e-01  0 
 -2.832333e-02  -1.210275e-01  0 
 -3.329778e-02  -1.214889e-01  0 
 -3.480826e-02  -1.351651e-01  0 
 -2.800813e-02  -1.115678e-01  0 
 -2.122405e-02  -1.178332e-01  0 
 -1.954518e-02  -1.241852e-01  0 
 -1.532380e-02  -1.122361e-01  0 
 -6.640083e-03  -1.138702e-01  0 
 -1.326873e-02  -1.205232e-01  0 
 -3.711503e-03  -1.244903e-01  0 
 2.487565e-03  -1.149212e-01  0 
 -2.209956e-02  -1.113929e-01  0 
VECTORS displacement_ITER3 FLOAT
 -2.406699e-02  -3.794240e-02  0 
 -4.770664e-03  -3.814379e-02  0 
 -2.393241e-02  -3.555864e-02  0 
 -2.788460e-02  -3.757293e-02  0 
 -2.606802e-02  -3.768986e-02  0 
 -1.925887e-02  -3.809296e-02  0 
 -1.443838e-02  -3.815317e-02  0 
 -9.601632e-03  -3.816196e-02  0 
 -2.411086e-02  -4.294530e-02  0 
 -2.413633e-02  -4.785894e-02  0 
 -2.695917e-02  -3.626658e-02  0 
 -2.545805e-02  -3.651861e-02  0 
 -1.754487e-02  -3.126810e-02  0 
 -1.272846e-02  -3.006135e-02  0 
 -8.540468e-03  -3.239277e-02  0 
 -2.146588e-02  -3.365449e-02  0 
 -2.453097e-02  -4.470640e-02  0 
 -2.657258e-02  -4.046741e-02  0 
 -2.590481e-02  -3.863232e-02  0 
 -2.599464e-02  -4.332945e-02  0 
 -2.535153e-02  -4.059861e-02  0 
 -2.458067e-02  -4.102190e-02  0 
 -2.563045e-02  -4.058361e-02  0 
 -2.061396e-02  -4.442621e-02  0 
 -1.971081e-02  -4.785591e-02  0 
 -1.747244e-02  -4.144553e-02  0 
 -1.286248e-02  -4.235914e-02  0 
 -1.636599e-02  -4.588561e-02  0 
 -1.129561e-02  -4.805512e-02  0 
 -8.010133e-03  -4.293531e-02  0 
 -2.108020e-02  -4.095402e-02  0 
VECTORS displacement_ITER4 FLOAT
 -1.081751e-02  -1.384075e-02  0 
 -3.204700e-03  -1.400794e-02  0 
 -1.069691e-02  -1.443021e-02  0 
 -8.955069e-03  -1.348034e-02  0 
 -9.865940e-03  -1.360315e-02  0 
 -8.952924e-03  -1.399490e-02  0 
 -7.061643e-03  -1.404500e-02  0 
 -5.130901e-03  -1.403689e-02  0 
 -1.086531e-02  -1.591181e-02  0 
 -1.089399e-02  -1.788286e-02  0 
 -9.477117e-03  -1.418215e-02  0 
 -1.025760e-02  -1.426664e-02  0 
 -9.256009e-03  -1.088871e-02  0 
 -7.404531e-03  -1.059497e-02  0 
 -5.568274e-03  -1.193313e-02  0 
 -1.084025e-02  -1.206231e-02  0 
 -1.142886e-02  -1.939925e-02  0 
 -1.015199e-02  -1.517293e-02  0 
 -1.116669e-02  -1.684213e-02  0 
 -1.047456e-02  -1.724210e-02  0 
 -1.137005e-02  -1.782967e-02  0 
 -1.169485e-02  -2.045942e-02  0 
 -1.036330e-02  -1.501035e-02  0 
 -9.465598e-03  -1.649937e-02  0 
 -9.103002e-03  -1.789311e-02  0 
 -8.241695e-03  -1.532862e-02  0 
 -6.435614e-03  -1.572233e-02  0 
 -7.797453e-03  -1.710393e-02  0 
 -5.803844e-03  -1.804130e-02  0 
 -4.491516e-03  -1.596088e-02  0 
 -9.643644e-03  -1.509729e-02  0 
VECTORS displacement_ITER5 FLOAT
 -4.268740e-03  -6.524707e-03  0 
 4.375403e-04  -6.614250e-03  0 
 -4.183387e-03  -6.622584e-03  0 
 -3.722316e-03  -6.224413e-03  0 
 -3.885157e-03  -6.321660e-03  0 
 -3.151690e-03  -6.655788e-03  0 
 -2.000196e-03  -6.682177e-03  0 
 -7.873409e-04  -6.654491e-03  0 
 -4.302628e-03  -7.813595e-03  0 
 -4.317411e-03  -8.995744e-03  0 
 -3.832803e-03  -6.378648e-03  0 
 -4.076776e-03  -6.610312e-03  0 
 -3.109979e-03  -4.183700e-03  0 
 -2.213111e-03  -3.901023e-03  0 
 -1.174020e-03  -4.763892e-03  0 
 -3.925302e-03  -5.089749e-03  0 
 -4.762634e-03  -8.698643e-03  0 
 -3.983192e-03  -7.376918e-03  0 
 -4.102731e-03  -7.697338e-03  0 
 -4.251086e-03  -8.366907e-03  0 
 -4.114151e-03  -8.247156e-03  0 
 -4.064364e-03  -9.141645e-03  0 
 -4.124845e-03  -7.237559e-03  0 
 -3.451816e-03  -8.175252e-03  0 
 -3.218784e-03  -9.036656e-03  0 
 -2.720077e-03  -7.471497e-03  0 
 -1.615151e-03  -7.727881e-03  0 
 -2.444141e-03  -8.572061e-03  0 
 -1.213729e-03  -9.209931e-03  0 
 -3.820469e-04  -7.883253e-03  0 
 -3.558685e-03  -7.314814e-03  0 
VECTORS displacement_ITER6 FLOAT
 -2.386395e-03  -4.851251e-03  0 
 1.373552e-04  -5.043350e-03  0 
 -2.302241e-03  -4.373640e-03  0 
 -2.717628e-03  -4.440984e-03  0 
 -2.542166e-03  -4.581065e-03  0 
 -1.775102e-03  -5.021401e-03  0 
 -1.164167e-03  -5.074438e-03  0 
 -5.209203e-04  -5.071386e-03  0 
 -2.401545e-03  -5.646001e-03  0 
 -2.404028e-03  -6.316467e-03  0 
 -2.667124e-03  -4.354292e-03  0 
 -2.571224e-03  -4.570744e-03  0 
 -1.903321e-03  -3.935280e-03  0 
 -1.369591e-03  -3.910436e-03  0 
 -7.705342e-04  -4.346711e-03  0 
 -2.322589e-03  -4.105108e-03  0 
 -2.733994e-03  -6.205195e-03  0 
 -2.564363e-03  -5.250688e-03  0 
 -2.629853e-03  -5.198453e-03  0 
 -2.504230e-03  -5.928255e-03  0 
 -2.505874e-03  -5.657557e-03  0 
 -2.392287e-03  -6.307471e-03  0 
 -2.466138e-03  -5.265841e-03  0 
 -1.918591e-03  -5.853920e-03  0 
 -1.793012e-03  -6.332593e-03  0 
 -1.534223e-03  -5.477383e-03  0 
 -9.547822e-04  -5.638813e-03  0 
 -1.384225e-03  -6.083800e-03  0 
 -7.380652e-04  -6.448811e-03  0 
 -3.048612e-04  -5.732799e-03  0 
 -1.976778e-03  -5.361151e-03  0 
VECTORS displacement_ITER7 FLOAT
 -1.150486e-03  -4.358621e-03  0 
 1.968283e-04  -4.496766e-03  0 
 -1.059009e-03  -3.766612e-03  0 
 -1.728616e-03  -4.101953e-03  0 
 -1.439008e-03  -4.146715e-03  0 
 -7.962148e-04  -4.517926e-03  0 
 -4.657163e-04  -4.588373e-03  0 
 -1.368973e-04  -4.575132e-03  0 
 -1.196773e-03  -4.909391e-03  0 
 -1.234250e-03  -5.403186e-03  0 
 -1.581105e-03  -3.891159e-03  0 
 -1.399330e-03  -4.016772e-03  0 
 -6.621820e-04  -3.973138e-03  0 
 -2.687337e-04  -3.793093e-03  0 
 5.381778e-05  -3.902942e-03  0 
 -9.220495e-04  -3.996964e-03  0 
 -1.491199e-03  -5.682343e-03  0 
 -1.593807e-03  -4.566810e-03  0 
 -1.817212e-03  -4.572536e-03  0 
 -1.421822e-03  -5.090729e-03  0 
 -1.722268e-03  -4.930504e-03  0 
 -1.748285e-03  -5.511369e-03  0 
 -1.344240e-03  -4.617533e-03  0 
 -8.738232e-04  -5.027705e-03  0 
 -8.163166e-04  -5.345387e-03  0 
 -6.490771e-04  -4.791473e-03  0 
 -3.601915e-04  -4.889304e-03  0 
 -5.681541e-04  -5.135478e-03  0 
 -2.633405e-04  -5.322307e-03  0 
 -4.341649e-05  -4.922135e-03  0 
 -9.039553e-04  -4.704468e-03  0 
VECTORS displacement_ITER8 FLOAT
 -1.162197e-03  -3.975731e-03  0 
 2.685120e-04  -4.026490e-03  0 
 -1.115641e-03  -3.557135e-03  0 
 -1.653650e-03  -3.793017e-03  0 
 -1.387672e-03  -3.837411e-03  0 
 -8.281724e-04  -4.111976e-03  0 
 -4.661299e-04  -4.138005e-03  0 
 -7.529628e-05  -4.105352e-03  0 
 -1.205622e-03  -4.499230e-03  0 
 -1.219998e-03  -4.934766e-03  0 
 -1.527321e-03  -3.608301e-03  0 
 -1.333729e-03  -3.700701e-03  0 
 -6.315413e-04  -3.678089e-03  0 
 -2.748308e-04  -3.538442e-03  0 
 -5.801365e-05  -3.676304e-03  0 
 -9.345018e-04  -3.722865e-03  0 
 -1.565476e-03  -5.208253e-03  0 
 -1.507259e-03  -4.307689e-03  0 
 -1.703946e-03  -4.389004e-03  0 
 -1.431439e-03  -4.716208e-03  0 
 -1.626193e-03  -4.676421e-03  0 
 -1.655314e-03  -5.083754e-03  0 
 -1.327366e-03  -4.269894e-03  0 
 -9.097304e-04  -4.622022e-03  0 
 -8.429793e-04  -4.924325e-03  0 
 -6.856425e-04  -4.385242e-03  0 
 -3.483622e-04  -4.477513e-03  0 
 -6.009413e-04  -4.765440e-03  0 
 -2.289930e-04  -4.991921e-03  0 
 4.071391e-05  -4.507168e-03  0 
 -9.355339e-04  -4.303765e-03  0 
VECTORS displacement_ITER9 FLOAT
 -1.154937e-03  -3.877964e-03  0 
 1.651176e-04  -3.962128e-03  0 
 -1.109043e-03  -3.457977e-03  0 
 -1.659372e-03  -3.680157e-03  0 
 -1.394666e-03  -3.743470e-03  0 
 -8.262005e-04  -4.008942e-03  0 
 -4.738978e-04  -4.045269e-03  0 
 -1.240096e-04  -4.035967e-03  0 
 -1.199889e-03  -4.391167e-03  0 
 -1.216931e-03  -4.817968e-03  0 
 -1.540684e-03  -3.509985e-03  0 
 -1.333969e-03  -3.599395e-03  0 
 -6.615705e-04  -3.626319e-03  0 
 -2.475665e-04  -3.502502e-03  0 
 1.623575e-05  -3.619484e-03  0 
 -9.598085e-04  -3.658856e-03  0 
 -1.431189e-03  -5.196230e-03  0 
 -1.495842e-03  -4.184065e-03  0 
 -1.693694e-03  -4.251288e-03  0 
 -1.381079e-03  -4.606723e-03  0 
 -1.614696e-03  -4.563248e-03  0 
 -1.634646e-03  -4.982216e-03  0 
 -1.312911e-03  -4.170930e-03  0 
 -9.095344e-04  -4.510076e-03  0 
 -8.457034e-04  -4.807587e-03  0 
 -6.845114e-04  -4.276202e-03  0 
 -3.590297e-04  -4.362511e-03  0 
 -6.018608e-04  -4.648145e-03  0 
 -2.588889e-04  -4.814561e-03  0 
 -3.048799e-05  -4.378867e-03  0 
 -9.333297e-04  -4.197696e-03  0 
VECTORS displacement_ITER10 FLOAT
 -1.110980e-03  -3.865773e-03  0 
 1.789370e-04  -3.935927e-03  0 
 -1.063939e-03  -3.442315e-03  0 
 -1.622935e-03  -3.676309e-03  0 
 -1.357011e-03  -3.734390e-03  0 
 -7.901708e-04  -3.995615e-03  0 
 -4.481974e-04  -4.034665e-03  0 
 -1.045874e-04  -4.021018e-03  0 
 -1.158489e-03  -4.370008e-03  0 
 -1.181734e-03  -4.791101e-03  0 
 -1.501633e-03  -3.502629e-03  0 
 -1.293407e-03  -3.585535e-03  0 
 -6.241711e-04  -3.617712e-03  0 
 -2.438008e-04  -3.431323e-03  0 
 5.819427e-07  -3.569157e-03  0 
 -9.155796e-04  -3.635094e-03  0 
 -1.347210e-03  -5.165189e-03  0 
 -1.448827e-03  -4.183527e-03  0 
 -1.662240e-03  -4.280198e-03  0 
 -1.335953e-03  -4.578349e-03  0 
 -1.569859e-03  -4.561472e-03  0 
 -1.616121e-03  -4.935256e-03  0 
 -1.269918e-03  -4.161339e-03  0 
 -8.705836e-04  -4.484877e-03  0 
 -8.045524e-04  -4.783974e-03  0 
 -6.507758e-04  -4.257768e-03  0 
 -3.363554e-04  -4.346673e-03  0 
 -5.669302e-04  -4.622762e-03  0 
 -2.407624e-04  -4.788962e-03  0 
 -1.424053e-05  -4.362372e-03  0 
 -8.943399e-04  -4.178810e-03  0 
VECTORS displacement_ITER11 FLOAT
 -1.122465e-03  -3.845928e-03  0 
 1.832936e-04  -3.913380e-03  0 
 -1.073979e-03  -3.426551e-03  0 
 -1.626577e-03  -3.659795e-03  0 
 -1.361448e-03  -3.714671e-03  0 
 -7.974845e-04  -3.974356e-03  0 
 -4.502712e-04  -4.012391e-03  0 
 -1.019028e-04  -3.998360e-03  0 
 -1.170088e-03  -4.353644e-03  0 
 -1.192746e-03  -4.777751e-03  0 
 -1.504010e-03  -3.485349e-03  0 
 -1.300660e-03  -3.570164e-03  0 
 -6.442909e-04  -3.552082e-03  0 
 -2.409855e-04  -3.476387e-03  0 
 1.117366e-05  -3.604511e-03  0 
 -9.250184e-04  -3.602238e-03  0 
 -1.393190e-03  -5.075864e-03  0 
 -1.462946e-03  -4.149596e-03  0 
 -1.677572e-03  -4.225584e-03  0 
 -1.343326e-03  -4.565967e-03  0 
 -1.580729e-03  -4.525778e-03  0 
 -1.608843e-03  -4.951520e-03  0 
 -1.279340e-03  -4.137626e-03  0 
 -8.796834e-04  -4.470014e-03  0 
 -8.125872e-04  -4.772446e-03  0 
 -6.564995e-04  -4.239552e-03  0 
 -3.370951e-04  -4.328251e-03  0 
 -5.717063e-04  -4.609582e-03  0 
 -2.409071e-04  -4.777100e-03  0 
 -1.108705e-05  -4.341695e-03  0 
 -9.036794e-04  -4.160721e-03  0 
VECTORS displacement_ITER12 FLOAT
 -1.122478e-03  -3.847650e-03  0 
 1.806869e-04  -3.915534e-03  0 
 -1.073648e-03  -3.426947e-03  0 
 -1.626489e-03  -3.662478e-03  0 
 -1.361406e-03  -3.716501e-03  0 
 -7.984773e-04  -3.976114e-03  0 
 -4.517921e-04  -4.013862e-03  0 
 -1.042412e-04  -4.000263e-03  0 
 -1.169977e-03  -4.354363e-03  0 
 -1.192465e-03  -4.777236e-03  0 
 -1.503741e-03  -3.487304e-03  0 
 -1.300644e-03  -3.571935e-03  0 
 -6.439898e-04  -3.556992e-03  0 
 -2.459996e-04  -3.470697e-03  0 
 1.019261e-05  -3.604039e-03  0 
 -9.223107e-04  -3.606223e-03  0 
 -1.384862e-03  -5.095394e-03  0 
 -1.462317e-03  -4.151339e-03  0 
 -1.672332e-03  -4.224966e-03  0 
 -1.343907e-03  -4.564245e-03  0 
 -1.580912e-03  -4.529010e-03  0 
 -1.614294e-03  -4.943257e-03  0 
 -1.279535e-03  -4.138700e-03  0 
 -8.803111e-04  -4.470530e-03  0 
 -8.132829e-04  -4.772058e-03  0 
 -6.578497e-04  -4.240729e-03  0 
 -3.386853e-04  -4.329176e-03  0 
 -5.733700e-04  -4.610149e-03  0 
 -2.415909e-04  -4.778716e-03  0 
 -1.351831e-05  -4.343095e-03  0 
 -9.042643e-04  -4.161921e-03  0 
VECTORS displacement_ITER13 FLOAT
 -1.121931e-03  -3.847627e-03  0 
 1.810787e-04  -3.915442e-03  0 
 -1.073105e-03  -3.426808e-03  0 
 -1.626054e-03  -3.662096e-03  0 
 -1.361157e-03  -3.716238e-03  0 
 -7.979649e-04  -3.976106e-03  0 
 -4.513373e-04  -4.013844e-03  0 
 -1.038302e-04  -4.000208e-03  0 
 -1.169455e-03  -4.354315e-03  0 
 -1.192009e-03  -4.777276e-03  0 
 -1.503413e-03  -3.487131e-03  0 
 -1.300394e-03  -3.571652e-03  0 
 -6.420488e-04  -3.558720e-03  0 
 -2.461863e-04  -3.467389e-03  0 
 8.298126e-06  -3.605924e-03  0 
 -9.212333e-04  -3.604921e-03  0 
 -1.385582e-03  -5.095896e-03  0 
 -1.461735e-03  -4.150857e-03  0 
 -1.674177e-03  -4.223562e-03  0 
 -1.344011e-03  -4.564076e-03  0 
 -1.579503e-03  -4.530157e-03  0 
 -1.614857e-03  -4.942766e-03  0 
 -1.279285e-03  -4.138471e-03  0 
 -8.797582e-04  -4.470456e-03  0 
 -8.127292e-04  -4.771966e-03  0 
 -6.573611e-04  -4.240690e-03  0 
 -3.382592e-04  -4.329110e-03  0 
 -5.729110e-04  -4.610055e-03  0 
 -2.411238e-04  -4.778765e-03  0 
 -1.312685e-05  -4.343008e-03  0 
 -9.037267e-04  -4.161873e-03  0 
VECTORS displacement_ITER14 FLOAT
 -1.122022e-03  -3.847597e-03  0 
 1.810596e-04  -3.915412e-03  0 
 -1.073209e-03  -3.426838e-03  0 
 -1.626092e-03  -3.662105e-03  0 
 -1.361206e-03  -3.716223e-03  0 
 -7.980318e-04  -3.976073e-03  0 
 -4.513840e-04  -4.013811e-03  0 
 -1.038609e-04  -4.000177e-03  0 
 -1.169541e-03  -4.354306e-03  0 
 -1.192082e-03  -4.777262e-03  0 
 -1.503451e-03  -3.487132e-03  0 
 -1.300451e-03  -3.571649e-03  0 
 -6.424289e-04  -3.559451e-03  0 
 -2.462609e-04  -3.466989e-03  0 
 8.761000e-06  -3.605963e-03  0 
 -9.216172e-04  -3.604541e-03  0 
 -1.385306e-03  -5.095878e-03  0 
 -1.461750e-03  -4.150774e-03  0 
 -1.674757e-03  -4.223709e-03  0 
 -1.343927e-03  -4.564045e-03  0 
 -1.579456e-03  -4.530118e-03  0 
 -1.614824e-03  -4.942780e-03  0 
 -1.279314e-03  -4.138453e-03  0 
 -8.798386e-04  -4.470458e-03  0 
 -8.128036e-04  -4.772000e-03  0 
 -6.574200e-04  -4.240670e-03  0 
 -3.383000e-04  -4.329091e-03  0 
 -5.729670e-04  -4.610050e-03  0 
 -2.411605e-04  -4.778757e-03  0 
 -1.315349e-05  -4.342990e-03  0 
 -9.038053e-04  -4.161857e-03  0 
CELL_DATA 42
TENSORS element_stresses FLOAT
 3.838468e-02  -4.378281e-02  0 
 -4.378281e-02  -2.049582e-01  0 
 0  0  0 

 -2.376571e-01  -3.182044e-01  0 
 -3.182044e-01  -1.413442e-01  0 
 0  0  0 

 -2.757087e-02  -1.913368e-01  0 
 -1.913368e-01  -5.337658e-01  0 
 0  0  0 

 6.913806e-02  -6.846995e-02  0 
 -6.846995e-02  -2.622054e-01  0 
 0  0  0 

 -5.945977e-05  -4.976706e-04  0 
 -4.976706e-04  -1.687932e-04  0 
 0  0  0 

 5.208964e-05  -7.580075e-04  0 
 -7.580075e-04  3.546862e-04  0 
 0  0  0 

 -2.828153e-04  -4.603114e-04  0 
 -4.603114e-04  -2.918716e-04  0 
 0  0  0 

 -1.246236e-04  -5.793846e-04  0 
 -5.793846e-04  -3.258109e-04  0 
 0  0  0 

 -1.633838e-04  -5.219832e-04  0 
 -5.219832e-04  -5.629196e-04  0 
 0  0  0 

 -4.694386e-05  -5.401314e-04  0 
 -5.401314e-04  3.015546e-05  0 
 0  0  0 

 -8.307448e-05  -5.888644e-04  0 
 -5.888644e-04  2.961725e-05  0 
 0  0  0 

 4.488881e-05  -7.629717e-04  0 
 -7.629717e-04  1.876563e-04  0 
 0  0  0 

 -1.392444e-04  -9.678264e-04  0 
 -9.678264e-04  -2.582469e-04  0 
 0  0  0 

 -2.400950e-04  -9.655628e-04  0 
 -9.655628e-04  -7.935922e-05  0 
 0  0  0 

 -2.478287e-04  -8.279249e-04  0 
 -8.279249e-04  -4.921625e-05  0 
 0  0  0 

 -1.272261e-04  -6.988860e-04  0 
 -6.988860e-04  -1.235448e-04  0 
 0  0  0 

 -2.277503e-04  -8.595372e-04  0 
 -8.595372e-04  6.213270e-06  0 
 0  0  0 

 -1.839941e-04  -5.277944e-04  0 
 -5.277944e-04  2.862346e-04  0 
 0  0  0 

 -2.010970e-04  -7.747584e-04  0 
 -7.747584e-04  7.047892e-05  0 
 0  0  0 

 -3.010172e-04  -7.372879e-04  0 
 -7.372879e-04  3.553597e-05  0 
 0  0  0 

 -2.129677e-04  -9.975170e-04  0 
 -9.975170e-04  -5.893848e-04  0 
 0  0  0 

 -3.036967e-04  -9.474037e-04  0 
 -9.474037e-04  -3.787387e-04  0 
 0  0  0 

 -1.901364e-04  -1.028185e-03  0 
 -1.028185e-03  -3.824252e-04  0 
 0  0  0 

 -2.344753e-04  -9.641347e-04  0 
 -9.641347e-04  -3.647866e-04  0 
 0  0  0 

 -1.587106e-04  -7.524060e-04  0 
 -7.524060e-04  -3.133030e-04  0 
 0  0  0 

 -7.621323e-02  -2.323765e-02  0 
 -2.323765e-02  4.649803e-02  0 
 0  0  0 

 -6.425038e-02  -4.099632e-02  0 
 -4.099632e-02  4.110171e-03  0 
 0  0  0 

 -5.274133e-03  -2.499160e-01  0 
 -2.499160e-01  -6.110005e-02  0 
 0  0  0 

 3.757601e-02  -5.514893e-02  0 
 -5.514893e-02  -1.396825e-01  0 
 0  0  0 

 1.920074e-02  -6.585153e-02  0 
 -6.585153e-02  6.029981e-02  0 
 0  0  0 

 -4.966912e-03  -1.612894e-01  0 
 -1.612894e-01  -1.010197e-01  0 
 0  0  0 

 9.861925e-02  -2.835522e-01  0 
 -2.835522e-01  3.686451e-01  0 
 0  0  0 

 -3.253821e-02  -2.121548e-01  0 
 -2.121548e-01  -5.236659e-01  0 
 0  0  0 

 -7.136529e-02  -7.678109e-02  0 
 -7.678109e-02  7.844053e-02  0 
 0  0  0 

 -2.325710e-01  -3.271244e-01  0 
 -3.271244e-01  -1.416531e-01  0 
 0  0  0 

 -3.673245e-02  -9.906579e-02  0 
 -9.906579e-02  9.967302e-02  0 
 0  0  0 

 5.548178e-02  -8.112949e-02  0 
 -8.112949e-02  -2.360370e-01  0 
 0  0  0 

 -1.226871e-01  -3.080108e-01  0 
 -3.080108e-01  -2.518227e-01  0 
 0  0  0 

 -7.467027e-03  -6.830017e-02  0 
 -6.830017e-02  -1.072237e-01  0 
 0  0  0 

 2.229292e-02  -2.160273e-01  0 
 -2.160273e-01  -6.306162e-02  0 
 0  0  0 

 -2.104897e-02  -2.125512e-01  0 
 -2.125512e-01  -1.318388e-02  0 
 0  0  0 

 1.337788e-02  -2.160628e-01  0 
 -2.160628e-01  1.318011e-01  0 
 0  0  0 

TENSORS element_stresses FLOAT
 3.838468e-02  -4.378281e-02  0 
 -4.378281e-02  -2.049582e-01  0 
 0  0  0 

 -2.376571e-01  -3.182044e-01  0 
 -3.182044e-01  -1.413442e-01  0 
 0  0  0 

 -2.757087e-02  -1.913368e-01  0 
 -1.913368e-01  -5.337658e-01  0 
 0  0  0 

 6.913806e-02  -6.846995e-02  0 
 -6.846995e-02  -2.622054e-01  0 
 0  0  0 

 -5.945977e-05  -4.976706e-04  0 
 -4.976706e-04  -1.687932e-04  0 
 0  0  0 

 5.208964e-05  -7.580075e-04  0 
 -7.580075e-04  3.546862e-04  0 
 0  0  0 

 -2.828153e-04  -4.603114e-04  0 
 -4.603114e-04  -2.918716e-04  0 
 0  0  0 

 -1.246236e-04  -5.793846e-04  0 
 -5.793846e-04  -3.258109e-04  0 
 0  0  0 

 -1.633838e-04  -5.219832e-04  0 
 -5.219832e-04  -5.629196e-04  0 
 0  0  0 

 -4.694386e-05  -5.401314e-04  0 
 -5.401314e-04  3.015546e-05  0 
 0  0  0 

 -8.307448e-05  -5.888644e-04  0 
 -5.888644e-04  2.961725e-05  0 
 0  0  0 

 4.488881e-05  -7.629717e-04  0 
 -7.629717e-04  1.876563e-04  0 
 0  0  0 

 -1.392444e-04  -9.678264e-04  0 
 -9.678264e-04  -2.582469e-04  0 
 0  0  0 

 -2.400950e-04  -9.655628e-04  0 
 -9.655628e-04  -7.935922e-05  0 
 0  0  0 

 -2.478287e-04  -8.279249e-04  0 
 -8.279249e-04  -4.921625e-05  0 
 0  0  0 

 -1.272261e-04  -6.988860e-04  0 
 -6.988860e-04  -1.235448e-04  0 
 0  0  0 

 -2.277503e-04  -8.595372e-04  0 
 -8.595372e-04  6.213270e-06  0 
 0  0  0 

 -1.839941e-04  -5.277944e-04  0 
 -5.277944e-04  2.862346e-04  0 
 0  0  0 

 -2.010970e-04  -7.747584e-04  0 
 -7.747584e-04  7.047892e-05  0 
 0  0  0 

 -3.010172e-04  -7.372879e-04  0 
 -7.372879e-04  3.553597e-05  0 
 0  0  0 

 -2.129677e-04  -9.975170e-04  0 
 -9.975170e-04  -5.893848e-04  0 
 0  0  0 

 -3.036967e-04  -9.474037e-04  0 
 -9.474037e-04  -3.787387e-04  0 
 0  0  0 

 -1.901364e-04  -1.028185e-03  0 
 -1.028185e-03  -3.824252e-04  0 
 0  0  0 

 -2.344753e-04  -9.641347e-04  0 
 -9.641347e-04  -3.647866e-04  0 
 0  0  0 

 -1.587106e-04  -7.524060e-04  0 
 -7.524060e-04  -3.133030e-04  0 
 0  0  0 

 -7.621323e-02  -2.323765e-02  0 
 -2.323765e-02  4.649803e-02  0 
 0  0  0 

 -6.425038e-02  -4.099632e-02  0 
 -4.099632e-02  4.110171e-03  0 
 0  0  0 

 -5.274133e-03  -2.499160e-01  0 
 -2.499160e-01  -6.110005e-02  0 
 0  0  0 

 3.757601e-02  -5.514893e-02  0 
 -5.514893e-02  -1.396825e-01  0 
 0  0  0 

 1.920074e-02  -6.585153e-02  0 
 -6.585153e-02  6.029981e-02  0 
 0  0  0 

 -4.966912e-03  -1.612894e-01  0 
 -1.612894e-01  -1.010197e-01  0 
 0  0  0 

 9.861925e-02  -2.835522e-01  0 
 -2.835522e-01  3.686451e-01  0 
 0  0  0 

 -3.253821e-02  -2.121548e-01  0 
 -2.121548e-01  -5.236659e-01  0 
 0  0  0 

 -7.136529e-02  -7.678109e-02  0 
 -7.678109e-02  7.844053e-02  0 
 0  0  0 

 -2.325710e-01  -3.271244e-01  0 
 -3.271244e-01  -1.416531e-01  0 
 0  0  0 

 -3.673245e-02  -9.906579e-02  0 
 -9.906579e-02  9.967302e-02  0 
 0  0  0 

 5.548178e-02  -8.112949e-02  0 
 -8.112949e-02  -2.360370e-01  0 
 0  0  0 

 -1.226871e-01  -3.080108e-01  0 
 -3.080108e-01  -2.518227e-01  0 
 0  0  0 

 -7.467027e-03  -6.830017e-02  0 
 -6.830017e-02  -1.072237e-01  0 
 0  0  0 

 2.229292e-02  -2.160273e-01  0 
 -2.160273e-01  -6.306162e-02  0 
 0  0  0 

 -2.104897e-02  -2.125512e-01  0 
 -2.125512e-01  -1.318388e-02  0 
 0  0  0 

 1.337788e-02  -2.160628e-01  0 
 -2.160628e-01  1.318011e-01  0 
 0  0  0 

