# vtk DataFile Version 3.1
this is an vtk file created by FEMAC
ASCII
DATASET UNSTRUCTURED_GRID
POINTS 30 FLOAT
6.000000 2.000000 0.000000
5.000000 1.500000 0.000000
5.250000 2.000000 0.000000
5.500000 2.000000 0.000000
5.750000 2.000000 0.000000
6.000000 1.500000 0.000000
6.000000 1.750000 0.000000
6.000000 2.250000 0.000000
6.000000 2.500000 0.000000
5.528256 1.447447 0.000000
5.669072 1.813081 0.000000
5.331392 1.813653 0.000000
5.500000 1.775000 0.000000
5.805846 1.660928 0.000000
5.194695 1.661595 0.000000
5.323754 1.413341 0.000000
5.717271 1.453287 0.000000
5.404183 1.616917 0.000000
5.598598 1.613486 0.000000
5.844984 1.844802 0.000000
5.155217 1.845050 0.000000
5.674167 2.178356 0.000000
5.325972 2.178472 0.000000
5.500000 2.225000 0.000000
5.828194 2.341416 0.000000
5.808128 2.581646 0.000000
5.399662 2.398247 0.000000
5.630720 2.401594 0.000000
5.507893 2.661856 0.000000
5.850472 2.153954 0.000000
CELLS 42 168 
3 3 10  4
3 11  3  2
3 12 10  3
3 11 12  3
3 11 17 12
3 18 10 12
3 6 13  5
3 18 13 10
3 14 17 11
3 18 17  9
3 12 17 18
3 14  1 15
3 9 17 15
3 14 15 17
3 5 13 16
3 18  9 16
3 16 13 18
3 4 19  0
3 19  6  0
3 19  4 10
3 2 20 11
3 19 13  6
3 10 13 19
3 14 11 20
3 21  3  4
3 3 22  2
3 21 23  3
3 23 22  3
3 26 22 23
3 21 27 23
3 24  7  8
3 24 27 21
3 26 23 27
3 29  4  0
3 7 29  0
3 4 29 21
3 24 29  7
3 24 21 29
3 24  8 25
3 24 25 27
3 26 27 28
3 28 27 25
CELL_TYPES 42
5 5 5 5 5 5 5 5 5 5 5 5 5 5 5 5 5 5 5 5 5 5 5 5 5 5 5 5 5 5 5 5 5 5 5 5 5 5 5 5 5 5 
POINT_DATA 30
VECTORS displacement_ITER1 FLOAT
 -2.437515e-02  -4.298171e-01  0 
 -8.607876e-02  -3.063190e-01  0 
 -2.434793e-02  -3.372362e-01  0 
 -2.434345e-02  -3.681068e-01  0 
 -2.435601e-02  -3.989693e-01  0 
 -8.607542e-02  -4.298781e-01  0 
 -5.521547e-02  -4.298531e-01  0 
 -2.188414e-02  -4.061719e-01  0 
 -2.634569e-02  -3.876268e-01  0 
 -9.256488e-02  -3.716013e-01  0 
 -4.741857e-02  -3.889898e-01  0 
 -4.734511e-02  -3.472806e-01  0 
 -5.211796e-02  -3.681087e-01  0 
 -6.620313e-02  -4.058872e-01  0 
 -6.611700e-02  -3.303895e-01  0 
 -9.678077e-02  -3.463338e-01  0 
 -9.184030e-02  -3.949557e-01  0 
 -7.163531e-02  -3.562732e-01  0 
 -7.205868e-02  -3.802910e-01  0 
 -4.350977e-02  -4.107068e-01  0 
 -4.347412e-02  -3.255248e-01  0 
 -1.425228e-02  -3.869291e-01  0 
 -1.429839e-02  -3.512779e-01  0 
 -1.164717e-02  -3.698974e-01  0 
 -1.721971e-02  -3.911134e-01  0 
 -2.045583e-02  -3.759627e-01  0 
 -1.031736e-02  -3.657300e-01  0 
 -1.280597e-02  -3.752438e-01  0 
 -1.984920e-02  -3.629389e-01  0 
 -1.755625e-02  -4.041524e-01  0 
VECTORS displacement_ITER2 FLOAT
 -2.638116e-02  -2.091868e-01  0 
 -5.126158e-02  -1.593405e-01  0 
 -2.641083e-02  -1.717442e-01  0 
 -2.639570e-02  -1.842271e-01  0 
 -2.638757e-02  -1.967028e-01  0 
 -5.129786e-02  -2.091657e-01  0 
 -3.884804e-02  -2.091713e-01  0 
 -1.866613e-02  -2.130084e-01  0 
 -1.095443e-02  -2.046643e-01  0 
 -5.391473e-02  -1.856383e-01  0 
 -3.570975e-02  -1.926601e-01  0 
 -3.569337e-02  -1.758053e-01  0 
 -3.761178e-02  -1.842221e-01  0 
 -4.328718e-02  -1.994841e-01  0 
 -4.325315e-02  -1.690005e-01  0 
 -5.560169e-02  -1.754525e-01  0 
 -5.362301e-02  -1.950694e-01  0 
 -4.548042e-02  -1.794446e-01  0 
 -4.565023e-02  -1.891441e-01  0 
 -3.412565e-02  -2.014399e-01  0 
 -3.413885e-02  -1.670203e-01  0 
 -1.988817e-02  -1.911020e-01  0 
 -1.475310e-02  -1.700078e-01  0 
 -1.516646e-02  -1.790226e-01  0 
 -1.377906e-02  -1.981403e-01  0 
 -3.916069e-03  -1.891003e-01  0 
 -4.256668e-03  -1.670205e-01  0 
 -8.531729e-03  -1.823297e-01  0 
 4.243048e-03  -1.644281e-01  0 
 -2.212340e-02  -2.019852e-01  0 
VECTORS displacement_ITER3 FLOAT
 -2.144253e-02  -7.910894e-02  0 
 -3.380254e-02  -5.432851e-02  0 
 -2.147978e-02  -6.039691e-02  0 
 -2.147589e-02  -6.664759e-02  0 
 -2.146019e-02  -7.286979e-02  0 
 -3.387438e-02  -7.905435e-02  0 
 -2.766520e-02  -7.907445e-02  0 
 -1.454045e-02  -9.291079e-02  0 
 -1.025019e-02  -9.577251e-02  0 
 -3.515166e-02  -6.733962e-02  0 
 -2.611366e-02  -7.084064e-02  0 
 -2.611799e-02  -6.244151e-02  0 
 -2.706550e-02  -6.663604e-02  0 
 -2.988321e-02  -7.423290e-02  0 
 -2.988055e-02  -5.906722e-02  0 
 -3.597598e-02  -6.228291e-02  0 
 -3.501260e-02  -7.203852e-02  0 
 -3.097751e-02  -6.425460e-02  0 
 -3.105698e-02  -6.908388e-02  0 
 -2.531677e-02  -7.522281e-02  0 
 -2.533452e-02  -5.803512e-02  0 
 -1.926198e-02  -7.357725e-02  0 
 -1.776892e-02  -6.293500e-02  0 
 -1.751938e-02  -6.802954e-02  0 
 -1.408529e-02  -8.366713e-02  0 
 -8.137455e-03  -8.350749e-02  0 
 -1.324714e-02  -6.596755e-02  0 
 -1.289480e-02  -7.418733e-02  0 
 -8.927075e-03  -7.181325e-02  0 
 -1.950823e-02  -7.976726e-02  0 
VECTORS displacement_ITER4 FLOAT
 -8.963129e-03  -2.821672e-02  0 
 -1.268271e-02  -2.070656e-02  0 
 -8.989627e-03  -2.242696e-02  0 
 -8.997260e-03  -2.437837e-02  0 
 -8.981726e-03  -2.628653e-02  0 
 -1.278200e-02  -2.814612e-02  0 
 -1.087731e-02  -2.817873e-02  0 
 -5.475532e-03  -4.229333e-02  0 
 -5.493779e-03  -4.371801e-02  0 
 -1.313246e-02  -2.458211e-02  0 
 -1.041402e-02  -2.565184e-02  0 
 -1.042717e-02  -2.308362e-02  0 
 -1.070716e-02  -2.436852e-02  0 
 -1.156274e-02  -2.668389e-02  0 
 -1.157256e-02  -2.207230e-02  0 
 -1.336924e-02  -2.305327e-02  0 
 -1.309896e-02  -2.603665e-02  0 
 -1.189142e-02  -2.363989e-02  0 
 -1.190877e-02  -2.511578e-02  0 
 -1.016353e-02  -2.700114e-02  0 
 -1.017588e-02  -2.169731e-02  0 
 -9.060491e-03  -2.862529e-02  0 
 -8.103008e-03  -2.487125e-02  0 
 -8.220398e-03  -2.675758e-02  0 
 -6.255141e-03  -3.582355e-02  0 
 -5.190127e-03  -3.592176e-02  0 
 -7.259652e-03  -2.813714e-02  0 
 -6.317111e-03  -3.083272e-02  0 
 -8.234952e-03  -3.290564e-02  0 
 -9.083548e-03  -3.159931e-02  0 
VECTORS displacement_ITER5 FLOAT
 -4.145079e-03  -1.278559e-02  0 
 -4.662649e-03  -1.169034e-02  0 
 -4.184952e-03  -1.181312e-02  0 
 -4.183921e-03  -1.215346e-02  0 
 -4.164665e-03  -1.246006e-02  0 
 -4.764667e-03  -1.273881e-02  0 
 -4.454258e-03  -1.275186e-02  0 
 -2.396293e-03  -2.822044e-02  0 
 -1.820859e-03  -3.286860e-02  0 
 -4.765433e-03  -1.218063e-02  0 
 -4.395873e-03  -1.234288e-02  0 
 -4.412424e-03  -1.194197e-02  0 
 -4.444333e-03  -1.214434e-02  0 
 -4.565633e-03  -1.249915e-02  0 
 -4.569098e-03  -1.181882e-02  0 
 -4.783284e-03  -1.196792e-02  0 
 -4.772408e-03  -1.241899e-02  0 
 -4.608215e-03  -1.203569e-02  0 
 -4.607327e-03  -1.225948e-02  0 
 -4.348362e-03  -1.256501e-02  0 
 -4.364479e-03  -1.169834e-02  0 
 -6.319378e-03  -1.504273e-02  0 
 -5.336453e-03  -1.259921e-02  0 
 -5.812814e-03  -1.348168e-02  0 
 -3.955158e-03  -2.247753e-02  0 
 -1.121393e-03  -2.327431e-02  0 
 -4.391800e-03  -1.284625e-02  0 
 -4.092233e-03  -1.680755e-02  0 
 -2.364834e-03  -1.516835e-02  0 
 -5.802457e-03  -1.743054e-02  0 
VECTORS displacement_ITER6 FLOAT
 -2.431186e-03  -9.301778e-03  0 
 -2.988649e-03  -8.167744e-03  0 
 -2.473206e-03  -8.358780e-03  0 
 -2.463008e-03  -8.676988e-03  0 
 -2.448776e-03  -8.981755e-03  0 
 -3.015220e-03  -9.246065e-03  0 
 -2.733851e-03  -9.265861e-03  0 
 -1.022051e-03  -2.456193e-02  0 
 -3.654543e-04  -2.914510e-02  0 
 -3.067317e-03  -8.694781e-03  0 
 -2.676373e-03  -8.869607e-03  0 
 -2.695383e-03  -8.458558e-03  0 
 -2.728644e-03  -8.664121e-03  0 
 -2.841702e-03  -9.023227e-03  0 
 -2.858490e-03  -8.306613e-03  0 
 -3.095034e-03  -8.478514e-03  0 
 -3.061678e-03  -8.912910e-03  0 
 -2.901690e-03  -8.549519e-03  0 
 -2.898852e-03  -8.776255e-03  0 
 -2.630737e-03  -9.085854e-03  0 
 -2.667236e-03  -8.228483e-03  0 
 -4.937896e-03  -1.151350e-02  0 
 -4.588345e-03  -9.229185e-03  0 
 -4.793042e-03  -1.017640e-02  0 
 -2.607086e-03  -1.891383e-02  0 
 8.206691e-05  -2.002897e-02  0 
 -3.736453e-03  -9.828116e-03  0 
 -3.054046e-03  -1.364314e-02  0 
 -1.293750e-03  -1.238880e-02  0 
 -4.312475e-03  -1.388679e-02  0 
VECTORS displacement_ITER7 FLOAT
 -1.267010e-03  -8.515780e-03  0 
 -2.121321e-03  -6.803277e-03  0 
 -1.309021e-03  -7.147829e-03  0 
 -1.298689e-03  -7.601256e-03  0 
 -1.284552e-03  -8.049208e-03  0 
 -2.152603e-03  -8.464866e-03  0 
 -1.716984e-03  -8.481435e-03  0 
 -1.802686e-04  -2.310131e-02  0 
 -1.533893e-04  -2.752431e-02  0 
 -2.230347e-03  -7.618176e-03  0 
 -1.622645e-03  -7.888739e-03  0 
 -1.646716e-03  -7.279790e-03  0 
 -1.699974e-03  -7.583532e-03  0 
 -1.878014e-03  -8.121755e-03  0 
 -1.897923e-03  -7.038059e-03  0 
 -2.277353e-03  -7.296698e-03  0 
 -2.222329e-03  -7.960503e-03  0 
 -1.968168e-03  -7.408563e-03  0 
 -1.962966e-03  -7.749195e-03  0 
 -1.557702e-03  -8.208898e-03  0 
 -1.612778e-03  -6.945859e-03  0 
 -3.723907e-03  -1.044675e-02  0 
 -2.888692e-03  -7.915230e-03  0 
 -3.324378e-03  -8.893485e-03  0 
 -1.854960e-03  -1.755366e-02  0 
 7.750537e-04  -1.795979e-02  0 
 -2.040782e-03  -8.088256e-03  0 
 -1.984015e-03  -1.191736e-02  0 
 4.134101e-04  -9.001433e-03  0 
 -3.181317e-03  -1.280871e-02  0 
VECTORS displacement_ITER8 FLOAT
 -1.244982e-03  -8.099229e-03  0 
 -2.082741e-03  -6.404543e-03  0 
 -1.279161e-03  -6.702494e-03  0 
 -1.275828e-03  -7.177816e-03  0 
 -1.262012e-03  -7.628324e-03  0 
 -2.124349e-03  -8.036653e-03  0 
 -1.698724e-03  -8.062443e-03  0 
 1.597458e-04  -2.249174e-02  0 
 -5.202229e-04  -2.581670e-02  0 
 -2.210693e-03  -7.202828e-03  0 
 -1.602563e-03  -7.467213e-03  0 
 -1.631903e-03  -6.852506e-03  0 
 -1.682650e-03  -7.155811e-03  0 
 -1.860323e-03  -7.705393e-03  0 
 -1.878105e-03  -6.625817e-03  0 
 -2.239193e-03  -6.876512e-03  0 
 -2.215215e-03  -7.537903e-03  0 
 -1.947168e-03  -6.981486e-03  0 
 -1.947708e-03  -7.323137e-03  0 
 -1.538321e-03  -7.790094e-03  0 
 -1.589905e-03  -6.510834e-03  0 
 -3.279517e-03  -1.014518e-02  0 
 -2.239614e-03  -7.529824e-03  0 
 -2.779719e-03  -8.674962e-03  0 
 -1.409283e-03  -1.701989e-02  0 
 3.147937e-04  -1.711291e-02  0 
 -1.249193e-03  -7.881583e-03  0 
 -1.515590e-03  -1.190698e-02  0 
 1.703261e-03  -8.321173e-03  0 
 -2.861043e-03  -1.237355e-02  0 
VECTORS displacement_ITER9 FLOAT
 -1.219407e-03  -7.909257e-03  0 
 -2.062209e-03  -6.203010e-03  0 
 -1.235391e-03  -6.524625e-03  0 
 -1.242792e-03  -7.005769e-03  0 
 -1.235341e-03  -7.449142e-03  0 
 -2.075956e-03  -7.835379e-03  0 
 -1.661672e-03  -7.869077e-03  0 
 1.888080e-04  -2.228609e-02  0 
 -5.929547e-04  -2.557936e-02  0 
 -2.164291e-03  -7.040609e-03  0 
 -1.570874e-03  -7.294123e-03  0 
 -1.593825e-03  -6.685753e-03  0 
 -1.647296e-03  -6.990737e-03  0 
 -1.821385e-03  -7.519647e-03  0 
 -1.838081e-03  -6.461860e-03  0 
 -2.213590e-03  -6.714259e-03  0 
 -2.153330e-03  -7.358107e-03  0 
 -1.907967e-03  -6.824563e-03  0 
 -1.906781e-03  -7.158921e-03  0 
 -1.506835e-03  -7.606466e-03  0 
 -1.546800e-03  -6.329607e-03  0 
 -3.244748e-03  -9.949656e-03  0 
 -2.091609e-03  -7.216880e-03  0 
 -2.700272e-03  -8.385818e-03  0 
 -1.381882e-03  -1.681905e-02  0 
 2.525899e-04  -1.679821e-02  0 
 -1.168934e-03  -7.492413e-03  0 
 -1.421031e-03  -1.167275e-02  0 
 1.558343e-03  -8.375221e-03  0 
 -2.831214e-03  -1.218024e-02  0 
VECTORS displacement_ITER10 FLOAT
 -1.187096e-03  -7.896893e-03  0 
 -2.046758e-03  -6.165895e-03  0 
 -1.199733e-03  -6.481531e-03  0 
 -1.210188e-03  -6.976166e-03  0 
 -1.202994e-03  -7.427787e-03  0 
 -2.061996e-03  -7.824040e-03  0 
 -1.638349e-03  -7.856767e-03  0 
 2.041171e-04  -2.226143e-02  0 
 -5.325380e-04  -2.552757e-02  0 
 -2.151169e-03  -7.009390e-03  0 
 -1.545540e-03  -7.269732e-03  0 
 -1.571153e-03  -6.648721e-03  0 
 -1.624673e-03  -6.959205e-03  0 
 -1.801228e-03  -7.499944e-03  0 
 -1.820770e-03  -6.422603e-03  0 
 -2.198979e-03  -6.677042e-03  0 
 -2.142306e-03  -7.333616e-03  0 
 -1.890679e-03  -6.788951e-03  0 
 -1.889277e-03  -7.129718e-03  0 
 -1.480150e-03  -7.588477e-03  0 
 -1.521687e-03  -6.279768e-03  0 
 -3.238729e-03  -9.900228e-03  0 
 -2.085565e-03  -7.136188e-03  0 
 -2.725554e-03  -8.308398e-03  0 
 -1.350816e-03  -1.677952e-02  0 
 2.107431e-04  -1.684033e-02  0 
 -1.212873e-03  -7.318103e-03  0 
 -1.435659e-03  -1.168056e-02  0 
 1.637463e-03  -8.391517e-03  0 
 -2.815777e-03  -1.215186e-02  0 
VECTORS displacement_ITER11 FLOAT
 -1.197801e-03  -7.872874e-03  0 
 -2.047581e-03  -6.159561e-03  0 
 -1.212993e-03  -6.476925e-03  0 
 -1.220964e-03  -6.962515e-03  0 
 -1.213658e-03  -7.409196e-03  0 
 -2.060904e-03  -7.799409e-03  0 
 -1.643635e-03  -7.832796e-03  0 
 1.822503e-04  -2.222815e-02  0 
 -5.461939e-04  -2.552043e-02  0 
 -2.151570e-03  -6.996632e-03  0 
 -1.551892e-03  -7.253058e-03  0 
 -1.576163e-03  -6.639212e-03  0 
 -1.629466e-03  -6.946374e-03  0 
 -1.804535e-03  -7.480617e-03  0 
 -1.823662e-03  -6.412874e-03  0 
 -2.199993e-03  -6.665066e-03  0 
 -2.140533e-03  -7.316279e-03  0 
 -1.892766e-03  -6.777651e-03  0 
 -1.891489e-03  -7.115803e-03  0 
 -1.487414e-03  -7.567933e-03  0 
 -1.528766e-03  -6.277972e-03  0 
 -3.246786e-03  -9.882087e-03  0 
 -2.074042e-03  -7.171805e-03  0 
 -2.733018e-03  -8.298867e-03  0 
 -1.371853e-03  -1.673412e-02  0 
 1.320711e-04  -1.675887e-02  0 
 -1.200419e-03  -7.269179e-03  0 
 -1.448271e-03  -1.165935e-02  0 
 1.616296e-03  -8.358784e-03  0 
 -2.829816e-03  -1.212548e-02  0 
VECTORS displacement_ITER12 FLOAT
 -1.199007e-03  -7.870711e-03  0 
 -2.047705e-03  -6.159558e-03  0 
 -1.213967e-03  -6.475904e-03  0 
 -1.222159e-03  -6.961273e-03  0 
 -1.214868e-03  -7.407473e-03  0 
 -2.061289e-03  -7.797259e-03  0 
 -1.644410e-03  -7.830629e-03  0 
 1.806952e-04  -2.222687e-02  0 
 -5.424634e-04  -2.553126e-02  0 
 -2.151581e-03  -6.995829e-03  0 
 -1.552792e-03  -7.251470e-03  0 
 -1.577207e-03  -6.638250e-03  0 
 -1.630350e-03  -6.944994e-03  0 
 -1.805170e-03  -7.478747e-03  0 
 -1.824350e-03  -6.412363e-03  0 
 -2.199788e-03  -6.663815e-03  0 
 -2.140894e-03  -7.314404e-03  0 
 -1.893157e-03  -6.776533e-03  0 
 -1.892112e-03  -7.114293e-03  0 
 -1.488355e-03  -7.566032e-03  0 
 -1.529800e-03  -6.276827e-03  0 
 -3.246533e-03  -9.881249e-03  0 
 -2.078782e-03  -7.172335e-03  0 
 -2.730689e-03  -8.301096e-03  0 
 -1.373394e-03  -1.672868e-02  0 
 1.338346e-04  -1.673661e-02  0 
 -1.187091e-03  -7.274033e-03  0 
 -1.442009e-03  -1.164965e-02  0 
 1.604350e-03  -8.350903e-03  0 
 -2.830934e-03  -1.212330e-02  0 
VECTORS displacement_ITER13 FLOAT
 -1.198240e-03  -7.870876e-03  0 
 -2.047380e-03  -6.158739e-03  0 
 -1.213312e-03  -6.475732e-03  0 
 -1.221433e-03  -6.961106e-03  0 
 -1.214112e-03  -7.407475e-03  0 
 -2.060941e-03  -7.797521e-03  0 
 -1.643810e-03  -7.830810e-03  0 
 1.827081e-04  -2.222760e-02  0 
 -5.400645e-04  -2.553043e-02  0 
 -2.151100e-03  -6.995770e-03  0 
 -1.552155e-03  -7.251404e-03  0 
 -1.576533e-03  -6.638019e-03  0 
 -1.629728e-03  -6.944844e-03  0 
 -1.804627e-03  -7.478767e-03  0 
 -1.823679e-03  -6.412084e-03  0 
 -2.199378e-03  -6.663705e-03  0 
 -2.140530e-03  -7.314350e-03  0 
 -1.892586e-03  -6.776410e-03  0 
 -1.891596e-03  -7.114182e-03  0 
 -1.487690e-03  -7.566090e-03  0 
 -1.529143e-03  -6.276613e-03  0 
 -3.244781e-03  -9.881886e-03  0 
 -2.080319e-03  -7.170801e-03  0 
 -2.729728e-03  -8.303918e-03  0 
 -1.371075e-03  -1.672936e-02  0 
 1.319633e-04  -1.674175e-02  0 
 -1.183707e-03  -7.278801e-03  0 
 -1.441616e-03  -1.165247e-02  0 
 1.603423e-03  -8.348933e-03  0 
 -2.829356e-03  -1.212372e-02  0 
VECTORS displacement_ITER14 FLOAT
 -1.198364e-03  -7.870814e-03  0 
 -2.047423e-03  -6.158883e-03  0 
 -1.213433e-03  -6.475797e-03  0 
 -1.221556e-03  -6.961131e-03  0 
 -1.214236e-03  -7.407456e-03  0 
 -2.060978e-03  -7.797456e-03  0 
 -1.643891e-03  -7.830747e-03  0 
 1.827167e-04  -2.222772e-02  0 
 -5.401768e-04  -2.553035e-02  0 
 -2.151122e-03  -6.995781e-03  0 
 -1.552247e-03  -7.251399e-03  0 
 -1.576623e-03  -6.638072e-03  0 
 -1.629816e-03  -6.944871e-03  0 
 -1.804693e-03  -7.478737e-03  0 
 -1.823765e-03  -6.412148e-03  0 
 -2.199424e-03  -6.663745e-03  0 
 -2.140563e-03  -7.314332e-03  0 
 -1.892654e-03  -6.776452e-03  0 
 -1.891656e-03  -7.114184e-03  0 
 -1.487788e-03  -7.566054e-03  0 
 -1.529230e-03  -6.276673e-03  0 
 -3.244908e-03  -9.881960e-03  0 
 -2.080510e-03  -7.171302e-03  0 
 -2.729893e-03  -8.304170e-03  0 
 -1.371094e-03  -1.672963e-02  0 
 1.322264e-04  -1.674245e-02  0 
 -1.183497e-03  -7.278816e-03  0 
 -1.441722e-03  -1.165257e-02  0 
 1.603788e-03  -8.348159e-03  0 
 -2.829437e-03  -1.212378e-02  0 
CELL_DATA 42
TENSORS element_stresses FLOAT
 1.175848e-02  7.960897e-03  0 
 7.960897e-03  -5.840458e-02  0 
 0  0  0 

 -2.815792e-02  -5.023730e-03  0 
 -5.023730e-03  1.445274e-02  0 
 0  0  0 

 3.123187e-02  1.365928e-02  0 
 1.365928e-02  -6.289684e-02  0 
 0  0  0 

 8.659726e-02  -1.666998e-02  0 
 -1.666998e-02  -4.628723e-02  0 
 0  0  0 

 7.422612e-02  -1.417949e-01  0 
 -1.417949e-01  5.520369e-02  0 
 0  0  0 

 7.351852e-02  -1.000057e-01  0 
 -1.000057e-01  -2.935379e-02  0 
 0  0  0 

 2.514783e-02  -6.430658e-02  0 
 -6.430658e-02  -1.256190e-01  0 
 0  0  0 

 1.246705e-02  -4.127590e-02  0 
 -4.127590e-02  -6.847889e-02  0 
 0  0  0 

 3.786390e-02  -8.711490e-02  0 
 -8.711490e-02  7.644577e-02  0 
 0  0  0 

 4.315073e-02  -1.444915e-01  0 
 -1.444915e-01  3.561607e-02  0 
 0  0  0 

 3.342164e-02  -7.338438e-02  0 
 -7.338438e-02  -2.287669e-03  0 
 0  0  0 

 -4.620493e-03  -1.697812e-02  0 
 -1.697812e-02  2.341801e-01  0 
 0  0  0 

 1.320036e-02  -9.692889e-02  0 
 -9.692889e-02  9.798208e-02  0 
 0  0  0 

 3.300344e-02  -1.562760e-01  0 
 -1.562760e-01  1.329503e-01  0 
 0  0  0 

 -5.463629e-03  -6.661460e-02  0 
 -6.661460e-02  -6.925138e-02  0 
 0  0  0 

 8.739545e-03  -9.686693e-02  0 
 -9.686693e-02  3.511291e-03  0 
 0  0  0 

 4.494139e-02  -1.186819e-01  0 
 -1.186819e-01  -3.241725e-02  0 
 0  0  0 

 3.270611e-02  -3.998502e-02  0 
 -3.998502e-02  -1.026092e-01  0 
 0  0  0 

 3.821393e-02  -1.801600e-02  0 
 -1.801600e-02  -1.488041e-01  0 
 0  0  0 

 2.647809e-02  9.609599e-03  0 
 9.609599e-03  -5.763247e-02  0 
 0  0  0 

 8.434350e-02  -5.395538e-02  0 
 -5.395538e-02  -1.983163e-03  0 
 0  0  0 

 1.320734e-02  -4.089782e-02  0 
 -4.089782e-02  -9.462998e-02  0 
 0  0  0 

 3.131806e-02  -4.606269e-02  0 
 -4.606269e-02  -8.850488e-02  0 
 0  0  0 

 1.213788e-01  -2.976977e-01  0 
 -2.976977e-01  3.452895e-01  0 
 0  0  0 

 -4.791889e-03  -1.012179e-02  0 
 -1.012179e-02  -1.607056e-02  0 
 0  0  0 

 -1.047995e-03  -5.219873e-03  0 
 -5.219873e-03  -3.385004e-03  0 
 0  0  0 

 -7.190180e-03  -1.335491e-02  0 
 -1.335491e-02  -8.126119e-03  0 
 0  0  0 

 -4.098809e-03  -8.936567e-03  0 
 -8.936567e-03  -7.198707e-03  0 
 0  0  0 

 -5.208294e-03  -8.840578e-04  0 
 -8.840578e-04  2.977389e-04  0 
 0  0  0 

 -4.292036e-03  -2.987470e-03  0 
 -2.987470e-03  -1.151525e-02  0 
 0  0  0 

 3.892614e-03  -3.224814e-02  0 
 -3.224814e-02  -1.204272e-02  0 
 0  0  0 

 -1.239867e-03  -1.633825e-02  0 
 -1.633825e-02  -1.412264e-02  0 
 0  0  0 

 -3.008020e-03  -8.189941e-03  0 
 -8.189941e-03  -5.905068e-03  0 
 0  0  0 

 -9.630767e-03  -9.527907e-03  0 
 -9.527907e-03  -3.231419e-02  0 
 0  0  0 

 -6.947970e-04  -1.935446e-02  0 
 -1.935446e-02  -5.763608e-02  0 
 0  0  0 

 -5.842008e-03  -2.044899e-02  0 
 -2.044899e-02  -2.223844e-02  0 
 0  0  0 

 5.480101e-03  -2.974292e-02  0 
 -2.974292e-02  -2.864384e-02  0 
 0  0  0 

 -4.905900e-03  -6.301075e-03  0 
 -6.301075e-03  -2.798863e-02  0 
 0  0  0 

 -2.284850e-03  -3.179031e-02  0 
 -3.179031e-02  -4.707506e-03  0 
 0  0  0 

 1.809135e-03  -1.534330e-02  0 
 -1.534330e-02  -1.715655e-03  0 
 0  0  0 

 -1.726273e-04  -6.065330e-03  0 
 -6.065330e-03  3.685724e-03  0 
 0  0  0 

 -2.420188e-03  -1.336024e-02  0 
 -1.336024e-02  -1.296431e-03  0 
 0  0  0 

TENSORS element_stresses FLOAT
 1.175848e-02  7.960897e-03  0 
 7.960897e-03  -5.840458e-02  0 
 0  0  0 

 -2.815792e-02  -5.023730e-03  0 
 -5.023730e-03  1.445274e-02  0 
 0  0  0 

 3.123187e-02  1.365928e-02  0 
 1.365928e-02  -6.289684e-02  0 
 0  0  0 

 8.659726e-02  -1.666998e-02  0 
 -1.666998e-02  -4.628723e-02  0 
 0  0  0 

 7.422612e-02  -1.417949e-01  0 
 -1.417949e-01  5.520369e-02  0 
 0  0  0 

 7.351852e-02  -1.000057e-01  0 
 -1.000057e-01  -2.935379e-02  0 
 0  0  0 

 2.514783e-02  -6.430658e-02  0 
 -6.430658e-02  -1.256190e-01  0 
 0  0  0 

 1.246705e-02  -4.127590e-02  0 
 -4.127590e-02  -6.847889e-02  0 
 0  0  0 

 3.786390e-02  -8.711490e-02  0 
 -8.711490e-02  7.644577e-02  0 
 0  0  0 

 4.315073e-02  -1.444915e-01  0 
 -1.444915e-01  3.561607e-02  0 
 0  0  0 

 3.342164e-02  -7.338438e-02  0 
 -7.338438e-02  -2.287669e-03  0 
 0  0  0 

 -4.620493e-03  -1.697812e-02  0 
 -1.697812e-02  2.341801e-01  0 
 0  0  0 

 1.320036e-02  -9.692889e-02  0 
 -9.692889e-02  9.798208e-02  0 
 0  0  0 

 3.300344e-02  -1.562760e-01  0 
 -1.562760e-01  1.329503e-01  0 
 0  0  0 

 -5.463629e-03  -6.661460e-02  0 
 -6.661460e-02  -6.925138e-02  0 
 0  0  0 

 8.739545e-03  -9.686693e-02  0 
 -9.686693e-02  3.511291e-03  0 
 0  0  0 

 4.494139e-02  -1.186819e-01  0 
 -1.186819e-01  -3.241725e-02  0 
 0  0  0 

 3.270611e-02  -3.998502e-02  0 
 -3.998502e-02  -1.026092e-01  0 
 0  0  0 

 3.821393e-02  -1.801600e-02  0 
 -1.801600e-02  -1.488041e-01  0 
 0  0  0 

 2.647809e-02  9.609599e-03  0 
 9.609599e-03  -5.763247e-02  0 
 0  0  0 

 8.434350e-02  -5.395538e-02  0 
 -5.395538e-02  -1.983163e-03  0 
 0  0  0 

 1.320734e-02  -4.089782e-02  0 
 -4.089782e-02  -9.462998e-02  0 
 0  0  0 

 3.131806e-02  -4.606269e-02  0 
 -4.606269e-02  -8.850488e-02  0 
 0  0  0 

 1.213788e-01  -2.976977e-01  0 
 -2.976977e-01  3.452895e-01  0 
 0  0  0 

 -4.791889e-03  -1.012179e-02  0 
 -1.012179e-02  -1.607056e-02  0 
 0  0  0 

 -1.047995e-03  -5.219873e-03  0 
 -5.219873e-03  -3.385004e-03  0 
 0  0  0 

 -7.190180e-03  -1.335491e-02  0 
 -1.335491e-02  -8.126119e-03  0 
 0  0  0 

 -4.098809e-03  -8.936567e-03  0 
 -8.936567e-03  -7.198707e-03  0 
 0  0  0 

 -5.208294e-03  -8.840578e-04  0 
 -8.840578e-04  2.977389e-04  0 
 0  0  0 

 -4.292036e-03  -2.987470e-03  0 
 -2.987470e-03  -1.151525e-02  0 
 0  0  0 

 3.892614e-03  -3.224814e-02  0 
 -3.224814e-02  -1.204272e-02  0 
 0  0  0 

 -1.239867e-03  -1.633825e-02  0 
 -1.633825e-02  -1.412264e-02  0 
 0  0  0 

 -3.008020e-03  -8.189941e-03  0 
 -8.189941e-03  -5.905068e-03  0 
 0  0  0 

 -9.630767e-03  -9.527907e-03  0 
 -9.527907e-03  -3.231419e-02  0 
 0  0  0 

 -6.947970e-04  -1.935446e-02  0 
 -1.935446e-02  -5.763608e-02  0 
 0  0  0 

 -5.842008e-03  -2.044899e-02  0 
 -2.044899e-02  -2.223844e-02  0 
 0  0  0 

 5.480101e-03  -2.974292e-02  0 
 -2.974292e-02  -2.864384e-02  0 
 0  0  0 

 -4.905900e-03  -6.301075e-03  0 
 -6.301075e-03  -2.798863e-02  0 
 0  0  0 

 -2.284850e-03  -3.179031e-02  0 
 -3.179031e-02  -4.707506e-03  0 
 0  0  0 

 1.809135e-03  -1.534330e-02  0 
 -1.534330e-02  -1.715655e-03  0 
 0  0  0 

 -1.726273e-04  -6.065330e-03  0 
 -6.065330e-03  3.685724e-03  0 
 0  0  0 

 -2.420188e-03  -1.336024e-02  0 
 -1.336024e-02  -1.296431e-03  0 
 0  0  0 

