# vtk DataFile Version 3.1
this is an vtk file created by FEMAC
ASCII
DATASET UNSTRUCTURED_GRID
POINTS 30 FLOAT
6.000000 2.000000 0.000000
5.000000 1.500000 0.000000
5.250000 2.000000 0.000000
5.500000 2.000000 0.000000
5.750000 2.000000 0.000000
6.000000 1.500000 0.000000
6.000000 1.750000 0.000000
6.000000 2.250000 0.000000
6.000000 2.500000 0.000000
5.528256 1.447447 0.000000
5.669072 1.813081 0.000000
5.331392 1.813653 0.000000
5.500000 1.775000 0.000000
5.805846 1.660928 0.000000
5.194695 1.661595 0.000000
5.323754 1.413341 0.000000
5.717271 1.453287 0.000000
5.404183 1.616917 0.000000
5.598598 1.613486 0.000000
5.844984 1.844802 0.000000
5.155217 1.845050 0.000000
5.674167 2.178356 0.000000
5.325972 2.178472 0.000000
5.500000 2.225000 0.000000
5.828194 2.341416 0.000000
5.808128 2.581646 0.000000
5.399662 2.398247 0.000000
5.630720 2.401594 0.000000
5.507893 2.661856 0.000000
5.850472 2.153954 0.000000
CELLS 42 168 
3 3 10  4
3 11  3  2
3 12 10  3
3 11 12  3
3 11 17 12
3 18 10 12
3 6 13  5
3 18 13 10
3 14 17 11
3 18 17  9
3 12 17 18
3 14  1 15
3 9 17 15
3 14 15 17
3 5 13 16
3 18  9 16
3 16 13 18
3 4 19  0
3 19  6  0
3 19  4 10
3 2 20 11
3 19 13  6
3 10 13 19
3 14 11 20
3 21  3  4
3 3 22  2
3 21 23  3
3 23 22  3
3 26 22 23
3 21 27 23
3 24  7  8
3 24 27 21
3 26 23 27
3 29  4  0
3 7 29  0
3 4 29 21
3 24 29  7
3 24 21 29
3 24  8 25
3 24 25 27
3 26 27 28
3 28 27 25
CELL_TYPES 42
5 5 5 5 5 5 5 5 5 5 5 5 5 5 5 5 5 5 5 5 5 5 5 5 5 5 5 5 5 5 5 5 5 5 5 5 5 5 5 5 5 5 
POINT_DATA 30
VECTORS displacement_ITER1 FLOAT
 -2.437515e-02  -4.298171e-01  0 
 -8.607876e-02  -3.063190e-01  0 
 -2.434793e-02  -3.372362e-01  0 
 -2.434345e-02  -3.681068e-01  0 
 -2.435601e-02  -3.989693e-01  0 
 -8.607542e-02  -4.298781e-01  0 
 -5.521547e-02  -4.298531e-01  0 
 -2.188414e-02  -4.061719e-01  0 
 -2.634569e-02  -3.876268e-01  0 
 -9.256488e-02  -3.716013e-01  0 
 -4.741857e-02  -3.889898e-01  0 
 -4.734511e-02  -3.472806e-01  0 
 -5.211796e-02  -3.681087e-01  0 
 -6.620313e-02  -4.058872e-01  0 
 -6.611700e-02  -3.303895e-01  0 
 -9.678077e-02  -3.463338e-01  0 
 -9.184030e-02  -3.949557e-01  0 
 -7.163531e-02  -3.562732e-01  0 
 -7.205868e-02  -3.802910e-01  0 
 -4.350977e-02  -4.107068e-01  0 
 -4.347412e-02  -3.255248e-01  0 
 -1.425228e-02  -3.869291e-01  0 
 -1.429839e-02  -3.512779e-01  0 
 -1.164717e-02  -3.698974e-01  0 
 -1.721971e-02  -3.911134e-01  0 
 -2.045583e-02  -3.759627e-01  0 
 -1.031736e-02  -3.657300e-01  0 
 -1.280597e-02  -3.752438e-01  0 
 -1.984920e-02  -3.629389e-01  0 
 -1.755625e-02  -4.041524e-01  0 
VECTORS displacement_ITER2 FLOAT
 6.561752e-03  -3.315468e-01  0 
 -3.298628e-02  -2.523688e-01  0 
 6.569831e-03  -2.721664e-01  0 
 6.576344e-03  -2.919670e-01  0 
 6.571538e-03  -3.117602e-01  0 
 -3.299998e-02  -3.315807e-01  0 
 -1.321436e-02  -3.315652e-01  0 
 6.086536e-03  -3.179904e-01  0 
 1.164373e-03  -3.043377e-01  0 
 -3.715669e-02  -2.942088e-01  0 
 -8.217116e-03  -3.053580e-01  0 
 -8.173779e-03  -2.786093e-01  0 
 -1.123135e-02  -2.919663e-01  0 
 -2.025942e-02  -3.161943e-01  0 
 -2.020387e-02  -2.677836e-01  0 
 -3.985277e-02  -2.780102e-01  0 
 -3.669392e-02  -3.091850e-01  0 
 -2.374143e-02  -2.843773e-01  0 
 -2.401320e-02  -2.997791e-01  0 
 -5.709755e-03  -3.192867e-01  0 
 -5.693384e-03  -2.646590e-01  0 
 1.163105e-02  -3.036919e-01  0 
 1.280622e-02  -2.797471e-01  0 
 1.373543e-02  -2.918495e-01  0 
 8.737598e-03  -3.065556e-01  0 
 5.711958e-03  -2.946661e-01  0 
 1.481636e-02  -2.872342e-01  0 
 1.200856e-02  -2.945149e-01  0 
 7.175545e-03  -2.830727e-01  0 
 9.403963e-03  -3.153548e-01  0 
VECTORS displacement_ITER3 FLOAT
 -3.995145e-02  -2.266062e-01  0 
 -6.935744e-02  -1.677454e-01  0 
 -3.997883e-02  -1.823942e-01  0 
 -3.996836e-02  -1.971372e-01  0 
 -3.995919e-02  -2.118680e-01  0 
 -6.938772e-02  -2.265964e-01  0 
 -5.467342e-02  -2.265919e-01  0 
 -3.039456e-02  -2.313975e-01  0 
 -2.078343e-02  -2.258437e-01  0 
 -7.247610e-02  -1.987924e-01  0 
 -5.096776e-02  -2.070935e-01  0 
 -5.094828e-02  -1.871948e-01  0 
 -5.321519e-02  -1.971299e-01  0 
 -5.991633e-02  -2.151481e-01  0 
 -5.988701e-02  -1.791567e-01  0 
 -7.447124e-02  -1.867648e-01  0 
 -7.213024e-02  -2.099253e-01  0 
 -6.251395e-02  -1.914852e-01  0 
 -6.271200e-02  -2.029363e-01  0 
 -4.909595e-02  -2.174602e-01  0 
 -4.910477e-02  -1.768168e-01  0 
 -3.292654e-02  -2.063582e-01  0 
 -2.936992e-02  -1.827597e-01  0 
 -2.876968e-02  -1.934446e-01  0 
 -2.559937e-02  -2.159046e-01  0 
 -1.377820e-02  -2.085192e-01  0 
 -1.756805e-02  -1.820851e-01  0 
 -2.070419e-02  -1.990182e-01  0 
 -6.123154e-03  -1.821086e-01  0 
 -3.481473e-02  -2.185875e-01  0 
VECTORS displacement_ITER4 FLOAT
 -3.621839e-02  -1.707731e-01  0 
 -4.897812e-02  -1.452091e-01  0 
 -3.626396e-02  -1.514986e-01  0 
 -3.625040e-02  -1.579256e-01  0 
 -3.623418e-02  -1.643421e-01  0 
 -4.902678e-02  -1.707395e-01  0 
 -4.263080e-02  -1.707439e-01  0 
 -2.826975e-02  -1.839999e-01  0 
 -1.848244e-02  -1.826307e-01  0 
 -5.036147e-02  -1.586406e-01  0 
 -4.102842e-02  -1.622536e-01  0 
 -4.103206e-02  -1.535929e-01  0 
 -4.201004e-02  -1.579158e-01  0 
 -4.491272e-02  -1.657557e-01  0 
 -4.490542e-02  -1.501121e-01  0 
 -5.121203e-02  -1.534256e-01  0 
 -5.021346e-02  -1.634800e-01  0 
 -4.604426e-02  -1.554608e-01  0 
 -4.612901e-02  -1.604403e-01  0 
 -4.020897e-02  -1.667709e-01  0 
 -4.023346e-02  -1.490787e-01  0 
 -3.282147e-02  -1.621413e-01  0 
 -2.878738e-02  -1.476329e-01  0 
 -2.922460e-02  -1.534042e-01  0 
 -2.499520e-02  -1.711764e-01  0 
 -1.285845e-02  -1.669647e-01  0 
 -1.847825e-02  -1.425949e-01  0 
 -2.124402e-02  -1.574810e-01  0 
 -5.475591e-03  -1.427922e-01  0 
 -3.384026e-02  -1.701977e-01  0 
VECTORS displacement_ITER5 FLOAT
 -4.343246e-02  -1.194686e-01  0 
 -5.387154e-02  -9.856011e-02  0 
 -4.350360e-02  -1.036578e-01  0 
 -4.348369e-02  -1.089280e-01  0 
 -4.345858e-02  -1.141879e-01  0 
 -5.392781e-02  -1.194108e-01  0 
 -4.869270e-02  -1.194216e-01  0 
 -2.965542e-02  -1.429732e-01  0 
 -1.358398e-02  -1.496686e-01  0 
 -5.501856e-02  -1.095003e-01  0 
 -4.739030e-02  -1.124661e-01  0 
 -4.740411e-02  -1.053730e-01  0 
 -4.819836e-02  -1.089123e-01  0 
 -5.056375e-02  -1.153285e-01  0 
 -5.056819e-02  -1.025314e-01  0 
 -5.570546e-02  -1.052451e-01  0 
 -5.489564e-02  -1.134583e-01  0 
 -5.149633e-02  -1.069005e-01  0 
 -5.156230e-02  -1.109750e-01  0 
 -4.671352e-02  -1.161700e-01  0 
 -4.675320e-02  -1.016768e-01  0 
 -3.928228e-02  -1.146184e-01  0 
 -3.610936e-02  -1.002127e-01  0 
 -3.582850e-02  -1.061100e-01  0 
 -2.664013e-02  -1.292705e-01  0 
 -8.446203e-03  -1.305102e-01  0 
 -2.281720e-02  -9.620063e-02  0 
 -2.350208e-02  -1.141992e-01  0 
 -2.394826e-03  -1.032961e-01  0 
 -3.953702e-02  -1.230642e-01  0 
VECTORS displacement_ITER6 FLOAT
 -2.909709e-02  -8.597997e-02  0 
 -3.485453e-02  -7.443410e-02  0 
 -2.917429e-02  -7.718538e-02  0 
 -2.915097e-02  -8.011639e-02  0 
 -2.912424e-02  -8.303761e-02  0 
 -3.491666e-02  -8.591987e-02  0 
 -3.201955e-02  -8.593165e-02  0 
 -1.759047e-02  -1.095524e-01  0 
 -5.166790e-03  -1.162068e-01  0 
 -3.551468e-02  -8.042238e-02  0 
 -3.130804e-02  -8.207130e-02  0 
 -3.132874e-02  -7.813670e-02  0 
 -3.176042e-02  -8.009885e-02  0 
 -3.305792e-02  -8.365386e-02  0 
 -3.306994e-02  -7.657403e-02  0 
 -3.587942e-02  -7.808158e-02  0 
 -3.544659e-02  -8.261237e-02  0 
 -3.357918e-02  -7.898251e-02  0 
 -3.361267e-02  -8.123890e-02  0 
 -3.092732e-02  -8.413023e-02  0 
 -3.097231e-02  -7.608809e-02  0 
 -2.658682e-02  -8.499399e-02  0 
 -2.470273e-02  -7.537784e-02  0 
 -2.426785e-02  -7.939107e-02  0 
 -1.588246e-02  -9.822704e-02  0 
 -1.986388e-03  -1.006245e-01  0 
 -1.481886e-02  -7.368956e-02  0 
 -1.419073e-02  -8.688983e-02  0 
 7.252384e-04  -8.173777e-02  0 
 -2.650379e-02  -9.124681e-02  0 
VECTORS displacement_ITER7 FLOAT
 -2.163290e-02  -6.627843e-02  0 
 -2.925085e-02  -5.101035e-02  0 
 -2.170776e-02  -5.470048e-02  0 
 -2.168251e-02  -5.856131e-02  0 
 -2.165742e-02  -6.241081e-02  0 
 -2.931039e-02  -6.622746e-02  0 
 -2.548228e-02  -6.623560e-02  0 
 -1.231036e-02  -8.594172e-02  0 
 -4.545580e-03  -9.067413e-02  0 
 -3.010540e-02  -5.896945e-02  0 
 -2.453508e-02  -6.114487e-02  0 
 -2.455374e-02  -5.595179e-02  0 
 -2.512939e-02  -5.854281e-02  0 
 -2.685134e-02  -6.323631e-02  0 
 -2.686353e-02  -5.387629e-02  0 
 -3.059849e-02  -5.586599e-02  0 
 -3.001350e-02  -6.186499e-02  0 
 -2.753841e-02  -5.706789e-02  0 
 -2.758337e-02  -6.004980e-02  0 
 -2.403694e-02  -6.385715e-02  0 
 -2.408093e-02  -5.324521e-02  0 
 -1.953757e-02  -6.463792e-02  0 
 -1.923086e-02  -5.652802e-02  0 
 -1.824869e-02  -6.051702e-02  0 
 -1.152928e-02  -7.631705e-02  0 
 -2.892949e-03  -7.842999e-02  0 
 -1.267847e-02  -5.921231e-02  0 
 -1.092383e-02  -6.783093e-02  0 
 -3.562590e-03  -6.782025e-02  0 
 -1.944118e-02  -7.013337e-02  0 
VECTORS displacement_ITER8 FLOAT
 -1.662834e-02  -5.768872e-02  0 
 -2.591654e-02  -3.907703e-02  0 
 -1.669696e-02  -4.361176e-02  0 
 -1.667226e-02  -4.830731e-02  0 
 -1.664969e-02  -5.299039e-02  0 
 -2.597363e-02  -5.764651e-02  0 
 -2.130973e-02  -5.765189e-02  0 
 -9.488963e-03  -7.365767e-02  0 
 -5.385366e-03  -7.675380e-02  0 
 -2.694506e-02  -4.881021e-02  0 
 -2.015001e-02  -5.145636e-02  0 
 -2.016537e-02  -4.513395e-02  0 
 -2.087104e-02  -4.828927e-02  0 
 -2.297562e-02  -5.400547e-02  0 
 -2.298571e-02  -4.259825e-02  0 
 -2.755355e-02  -4.502041e-02  0 
 -2.683278e-02  -5.233912e-02  0 
 -2.380991e-02  -4.649319e-02  0 
 -2.386610e-02  -5.012646e-02  0 
 -1.954702e-02  -5.475513e-02  0 
 -1.958729e-02  -4.183675e-02  0 
 -1.503457e-02  -5.503228e-02  0 
 -1.553154e-02  -4.754458e-02  0 
 -1.436347e-02  -5.162303e-02  0 
 -9.375867e-03  -6.525260e-02  0 
 -4.529949e-03  -6.662619e-02  0 
 -1.141669e-02  -5.263089e-02  0 
 -9.333582e-03  -5.840464e-02  0 
 -6.967755e-03  -6.064432e-02  0 
 -1.495855e-02  -6.009514e-02  0 
VECTORS displacement_ITER9 FLOAT
 -7.622905e-03  -4.624406e-02  0 
 -1.789434e-02  -2.566928e-02  0 
 -7.682507e-03  -3.070253e-02  0 
 -7.660529e-03  -3.588847e-02  0 
 -7.641049e-03  -4.105980e-02  0 
 -1.794609e-02  -4.621012e-02  0 
 -1.279126e-02  -4.621291e-02  0 
 -2.595706e-03  -5.861805e-02  0 
 -1.484094e-03  -5.929557e-02  0 
 -1.902225e-02  -3.644639e-02  0 
 -1.150628e-02  -3.936983e-02  0 
 -1.151900e-02  -3.238492e-02  0 
 -1.230161e-02  -3.587129e-02  0 
 -1.463115e-02  -4.218709e-02  0 
 -1.464162e-02  -2.957742e-02  0 
 -1.970014e-02  -3.225297e-02  0 
 -1.889705e-02  -4.034661e-02  0 
 -1.555302e-02  -3.388625e-02  0 
 -1.561530e-02  -3.790189e-02  0 
 -1.084214e-02  -4.301194e-02  0 
 -1.087814e-02  -2.873935e-02  0 
 -6.396146e-03  -4.261070e-02  0 
 -7.206395e-03  -3.570145e-02  0 
 -6.031305e-03  -3.967572e-02  0 
 -2.752149e-03  -5.100653e-02  0 
 -9.608674e-04  -5.098368e-02  0 
 -4.810069e-03  -4.184225e-02  0 
 -2.903267e-03  -4.540340e-02  0 
 -4.003578e-03  -4.820359e-02  0 
 -6.480382e-03  -4.729004e-02  0 
VECTORS displacement_ITER10 FLOAT
 -9.198586e-03  -3.665007e-02  0 
 -1.702686e-02  -2.096812e-02  0 
 -9.252948e-03  -2.477826e-02  0 
 -9.234290e-03  -2.874170e-02  0 
 -9.216114e-03  -3.268943e-02  0 
 -1.707558e-02  -3.661657e-02  0 
 -1.314332e-02  -3.661964e-02  0 
 -5.578079e-03  -4.873355e-02  0 
 -5.292889e-03  -4.910292e-02  0 
 -1.789536e-02  -2.916139e-02  0 
 -1.216671e-02  -3.139633e-02  0 
 -1.218132e-02  -2.606443e-02  0 
 -1.277554e-02  -2.872532e-02  0 
 -1.454758e-02  -3.354372e-02  0 
 -1.456271e-02  -2.392442e-02  0 
 -1.840749e-02  -2.596788e-02  0 
 -1.779812e-02  -3.213559e-02  0 
 -1.525492e-02  -2.720886e-02  0 
 -1.530013e-02  -3.027305e-02  0 
 -1.165797e-02  -3.417716e-02  0 
 -1.169260e-02  -2.327880e-02  0 
 -8.872378e-03  -3.427788e-02  0 
 -9.401907e-03  -2.880721e-02  0 
 -8.571199e-03  -3.190516e-02  0 
 -5.980170e-03  -4.169330e-02  0 
 -4.810644e-03  -4.129892e-02  0 
 -7.674669e-03  -3.364364e-02  0 
 -6.176836e-03  -3.661471e-02  0 
 -7.414628e-03  -3.848841e-02  0 
 -8.900833e-03  -3.823950e-02  0 
VECTORS displacement_ITER11 FLOAT
 -6.639827e-03  -2.978916e-02  0 
 -1.305240e-02  -1.694293e-02  0 
 -6.690744e-03  -2.004101e-02  0 
 -6.675200e-03  -2.329702e-02  0 
 -6.657659e-03  -2.653645e-02  0 
 -1.309995e-02  -2.975386e-02  0 
 -9.876195e-03  -2.975779e-02  0 
 -3.157918e-03  -4.296646e-02  0 
 -1.824237e-03  -4.454639e-02  0 
 -1.377081e-02  -2.363752e-02  0 
 -9.078605e-03  -2.547301e-02  0 
 -9.093992e-03  -2.109907e-02  0 
 -9.579220e-03  -2.328160e-02  0 
 -1.102820e-02  -2.723201e-02  0 
 -1.104565e-02  -1.934654e-02  0 
 -1.418684e-02  -2.102401e-02  0 
 -1.368982e-02  -2.607441e-02  0 
 -1.161099e-02  -2.203712e-02  0 
 -1.164645e-02  -2.454959e-02  0 
 -8.659737e-03  -2.775493e-02  0 
 -8.692826e-03  -1.881122e-02  0 
 -6.827929e-03  -2.810311e-02  0 
 -6.880435e-03  -2.271712e-02  0 
 -6.362160e-03  -2.549549e-02  0 
 -3.589704e-03  -3.580150e-02  0 
 -1.003384e-03  -3.568998e-02  0 
 -4.682526e-03  -2.578038e-02  0 
 -3.598222e-03  -2.996541e-02  0 
 -2.691963e-03  -2.994812e-02  0 
 -6.730179e-03  -3.202319e-02  0 
VECTORS displacement_ITER12 FLOAT
 -8.261712e-03  -2.215520e-02  0 
 -1.114955e-02  -1.636089e-02  0 
 -8.310414e-03  -1.769322e-02  0 
 -8.297310e-03  -1.918717e-02  0 
 -8.280071e-03  -2.066434e-02  0 
 -1.119684e-02  -2.211771e-02  0 
 -9.735757e-03  -2.212261e-02  0 
 -5.867546e-03  -3.667370e-02  0 
 -4.446810e-03  -3.979894e-02  0 
 -1.149659e-02  -1.932994e-02  0 
 -9.383209e-03  -2.017154e-02  0 
 -9.401733e-03  -1.817949e-02  0 
 -9.614931e-03  -1.917271e-02  0 
 -1.025992e-02  -2.096562e-02  0 
 -1.028162e-02  -1.739130e-02  0 
 -1.167246e-02  -1.815872e-02  0 
 -1.145683e-02  -2.043254e-02  0 
 -1.053199e-02  -1.860455e-02  0 
 -1.054352e-02  -1.974543e-02  0 
 -9.187936e-03  -2.121298e-02  0 
 -9.220812e-03  -1.713297e-02  0 
 -9.747947e-03  -2.261530e-02  0 
 -9.384922e-03  -1.875239e-02  0 
 -9.351339e-03  -2.051274e-02  0 
 -6.773972e-03  -3.013866e-02  0 
 -3.676849e-03  -3.060803e-02  0 
 -7.636428e-03  -1.983523e-02  0 
 -6.896137e-03  -2.434765e-02  0 
 -4.894588e-03  -2.314005e-02  0 
 -9.376953e-03  -2.576070e-02  0 
VECTORS displacement_ITER13 FLOAT
 -6.286893e-03  -1.430421e-02  0 
 -6.787269e-03  -1.328298e-02  0 
 -6.334729e-03  -1.342370e-02  0 
 -6.322508e-03  -1.372361e-02  0 
 -6.305477e-03  -1.400732e-02  0 
 -6.834019e-03  -1.426622e-02  0 
 -6.566889e-03  -1.427137e-02  0 
 -5.134542e-03  -2.971608e-02  0 
 -4.532801e-03  -3.510474e-02  0 
 -6.882254e-03  -1.373299e-02  0 
 -6.515603e-03  -1.390096e-02  0 
 -6.535869e-03  -1.352171e-02  0 
 -6.564935e-03  -1.370984e-02  0 
 -6.665638e-03  -1.404177e-02  0 
 -6.689165e-03  -1.338621e-02  0 
 -6.895910e-03  -1.353763e-02  0 
 -6.870286e-03  -1.393238e-02  0 
 -6.726654e-03  -1.359978e-02  0 
 -6.722228e-03  -1.381211e-02  0 
 -6.471901e-03  -1.410218e-02  0 
 -6.504530e-03  -1.331635e-02  0 
 -9.176062e-03  -1.654886e-02  0 
 -8.808423e-03  -1.391104e-02  0 
 -9.111476e-03  -1.501487e-02  0 
 -6.938359e-03  -2.424811e-02  0 
 -4.117165e-03  -2.572669e-02  0 
 -8.148608e-03  -1.429907e-02  0 
 -7.437057e-03  -1.871646e-02  0 
 -5.672602e-03  -1.750863e-02  0 
 -8.402537e-03  -1.896074e-02  0 
VECTORS displacement_ITER14 FLOAT
 -4.447146e-03  -1.299603e-02  0 
 -5.297604e-03  -1.127333e-02  0 
 -4.495933e-03  -1.159128e-02  0 
 -4.482744e-03  -1.206557e-02  0 
 -4.465584e-03  -1.252431e-02  0 
 -5.344389e-03  -1.295886e-02  0 
 -4.902091e-03  -1.296361e-02  0 
 -3.306062e-03  -2.808830e-02  0 
 -2.946070e-03  -3.315321e-02  0 
 -5.429257e-03  -1.209497e-02  0 
 -4.806498e-03  -1.236126e-02  0 
 -4.826403e-03  -1.174535e-02  0 
 -4.882448e-03  -1.205170e-02  0 
 -5.063127e-03  -1.259812e-02  0 
 -5.085662e-03  -1.151414e-02  0 
 -5.466812e-03  -1.175580e-02  0 
 -5.413146e-03  -1.242708e-02  0 
 -5.154631e-03  -1.187454e-02  0 
 -5.152765e-03  -1.222329e-02  0 
 -4.740638e-03  -1.268575e-02  0 
 -4.773573e-03  -1.141727e-02  0 
 -7.230445e-03  -1.504492e-02  0 
 -6.992575e-03  -1.240408e-02  0 
 -7.209833e-03  -1.356843e-02  0 
 -5.092845e-03  -2.263963e-02  0 
 -2.568841e-03  -2.398270e-02  0 
 -6.391435e-03  -1.313990e-02  0 
 -5.619199e-03  -1.727432e-02  0 
 -4.211956e-03  -1.632451e-02  0 
 -6.489156e-03  -1.747068e-02  0 
VECTORS displacement_ITER15 FLOAT
 -1.575612e-03  -1.330437e-02  0 
 -3.242111e-03  -9.947285e-03  0 
 -1.626903e-03  -1.067711e-02  0 
 -1.611538e-03  -1.155808e-02  0 
 -1.593933e-03  -1.242482e-02  0 
 -3.288874e-03  -1.326834e-02  0 
 -2.438534e-03  -1.327242e-02  0 
 -2.251119e-04  -2.792932e-02  0 
 -3.145409e-05  -3.233001e-02  0 
 -3.459466e-03  -1.163361e-02  0 
 -2.239823e-03  -1.212953e-02  0 
 -2.259153e-03  -1.096203e-02  0 
 -2.377943e-03  -1.154383e-02  0 
 -2.744788e-03  -1.259013e-02  0 
 -2.765582e-03  -1.050773e-02  0 
 -3.552555e-03  -1.095955e-02  0 
 -3.433624e-03  -1.227514e-02  0 
 -2.907680e-03  -1.121011e-02  0 
 -2.911594e-03  -1.187680e-02  0 
 -2.122234e-03  -1.274136e-02  0 
 -2.156218e-03  -1.034776e-02  0 
 -4.017864e-03  -1.488297e-02  0 
 -4.045690e-03  -1.214088e-02  0 
 -4.052403e-03  -1.346367e-02  0 
 -1.879067e-03  -2.236771e-02  0 
 2.936560e-04  -2.347783e-02  0 
 -3.379131e-03  -1.357153e-02  0 
 -2.437411e-03  -1.724977e-02  0 
 -1.524935e-03  -1.682812e-02  0 
 -3.362642e-03  -1.742251e-02  0 
VECTORS displacement_ITER16 FLOAT
 -3.322698e-03  -1.236299e-02  0 
 -4.594002e-03  -9.794985e-03  0 
 -3.374890e-03  -1.032762e-02  0 
 -3.359118e-03  -1.101089e-02  0 
 -3.341310e-03  -1.168050e-02  0 
 -4.640515e-03  -1.232611e-02  0 
 -3.988310e-03  -1.233045e-02  0 
 -1.852844e-03  -2.761368e-02  0 
 -1.005878e-03  -3.269201e-02  0 
 -4.769759e-03  -1.106468e-02  0 
 -3.839508e-03  -1.144900e-02  0 
 -3.859253e-03  -1.054807e-02  0 
 -3.947388e-03  -1.099685e-02  0 
 -4.224090e-03  -1.180176e-02  0 
 -4.244992e-03  -1.020196e-02  0 
 -4.835887e-03  -1.055168e-02  0 
 -4.748196e-03  -1.155736e-02  0 
 -4.351831e-03  -1.073888e-02  0 
 -4.353096e-03  -1.125235e-02  0 
 -3.746995e-03  -1.192196e-02  0 
 -3.781447e-03  -1.007324e-02  0 
 -5.922293e-03  -1.418446e-02  0 
 -5.937663e-03  -1.149821e-02  0 
 -5.964704e-03  -1.272010e-02  0 
 -3.509915e-03  -2.194915e-02  0 
 -6.475619e-04  -2.339318e-02  0 
 -5.058617e-03  -1.249098e-02  0 
 -4.084068e-03  -1.657326e-02  0 
 -2.368847e-03  -1.577642e-02  0 
 -5.195024e-03  -1.676217e-02  0 
VECTORS displacement_ITER17 FLOAT
 -2.199285e-03  -8.380509e-03  0 
 -1.405436e-03  -9.944526e-03  0 
 -2.253465e-03  -9.439104e-03  0 
 -2.238112e-03  -9.091014e-03  0 
 -2.219419e-03  -8.728766e-03  0 
 -1.452467e-03  -8.338424e-03  0 
 -1.833625e-03  -8.344909e-03  0 
 -5.208353e-04  -2.559629e-02  0 
 1.060973e-03  -3.249628e-02  0 
 -1.364940e-03  -9.027490e-03  0 
 -1.946335e-03  -8.830465e-03  0 
 -1.969030e-03  -9.324400e-03  0 
 -1.897110e-03  -9.076684e-03  0 
 -1.701949e-03  -8.617636e-03  0 
 -1.726417e-03  -9.543496e-03  0 
 -1.289640e-03  -9.360241e-03  0 
 -1.367087e-03  -8.738908e-03  0 
 -1.648215e-03  -9.214462e-03  0 
 -1.635001e-03  -8.924683e-03  0 
 -1.984305e-03  -8.577202e-03  0 
 -2.020808e-03  -9.576587e-03  0 
 -5.323946e-03  -1.175901e-02  0 
 -5.088243e-03  -9.753335e-03  0 
 -5.333370e-03  -1.049859e-02  0 
 -2.465473e-03  -2.014707e-02  0 
 1.489589e-03  -2.240653e-02  0 
 -3.925046e-03  -9.672367e-03  0 
 -3.059742e-03  -1.447724e-02  0 
 2.128464e-04  -1.308123e-02  0 
 -4.375516e-03  -1.399530e-02  0 
VECTORS displacement_ITER18 FLOAT
 -2.501987e-03  -8.213183e-03  0 
 -1.366317e-03  -1.046202e-02  0 
 -2.555128e-03  -9.784592e-03  0 
 -2.540423e-03  -9.265979e-03  0 
 -2.522040e-03  -8.732522e-03  0 
 -1.412353e-03  -8.170067e-03  0 
 -1.965189e-03  -8.177369e-03  0 
 -9.427741e-04  -2.542578e-02  0 
 5.944705e-04  -3.222592e-02  0 
 -1.289705e-03  -9.182836e-03  0 
 -2.121093e-03  -8.889799e-03  0 
 -2.144175e-03  -9.614719e-03  0 
 -2.045832e-03  -9.251715e-03  0 
 -1.772621e-03  -8.583196e-03  0 
 -1.798192e-03  -9.926895e-03  0 
 -1.191251e-03  -9.655502e-03  0 
 -1.295421e-03  -8.765028e-03  0 
 -1.689117e-03  -9.454828e-03  0 
 -1.673283e-03  -9.032213e-03  0 
 -2.180811e-03  -8.515985e-03  0 
 -2.217245e-03  -9.986612e-03  0 
 -5.684582e-03  -1.175961e-02  0 
 -5.356467e-03  -9.955364e-03  0 
 -5.655114e-03  -1.055819e-02  0 
 -2.880172e-03  -2.000026e-02  0 
 1.098458e-03  -2.210825e-02  0 
 -4.154611e-03  -9.587036e-03  0 
 -3.421360e-03  -1.434472e-02  0 
 7.150413e-05  -1.257927e-02  0 
 -4.751364e-03  -1.390886e-02  0 
VECTORS displacement_ITER19 FLOAT
 -2.683439e-03  -9.291520e-03  0 
 -2.946402e-03  -8.742766e-03  0 
 -2.732929e-03  -8.768708e-03  0 
 -2.719047e-03  -8.948864e-03  0 
 -2.702041e-03  -9.113602e-03  0 
 -2.989765e-03  -9.251078e-03  0 
 -2.844253e-03  -9.258008e-03  0 
 -1.493759e-03  -2.499398e-02  0 
 -5.512717e-04  -3.069364e-02  0 
 -3.015455e-03  -8.944904e-03  0 
 -2.822961e-03  -9.045888e-03  0 
 -2.843747e-03  -8.826310e-03  0 
 -2.853946e-03  -8.935053e-03  0 
 -2.900381e-03  -9.122026e-03  0 
 -2.924318e-03  -8.754705e-03  0 
 -3.013379e-03  -8.844491e-03  0 
 -3.004376e-03  -9.056425e-03  0 
 -2.940151e-03  -8.869856e-03  0 
 -2.933733e-03  -8.991507e-03  0 
 -2.794586e-03  -9.163255e-03  0 
 -2.828817e-03  -8.704642e-03  0 
 -5.638260e-03  -1.174182e-02  0 
 -5.457549e-03  -9.534837e-03  0 
 -5.646351e-03  -1.040260e-02  0 
 -3.302277e-03  -1.948553e-02  0 
 -6.448857e-05  -2.098637e-02  0 
 -4.546343e-03  -9.743802e-03  0 
 -3.824741e-03  -1.397420e-02  0 
 -1.306613e-03  -1.227075e-02  0 
 -4.838682e-03  -1.410432e-02  0 
VECTORS displacement_ITER20 FLOAT
 -1.373515e-03  -9.283112e-03  0 
 -1.138434e-03  -9.730994e-03  0 
 -1.421883e-03  -9.507128e-03  0 
 -1.408539e-03  -9.438612e-03  0 
 -1.391887e-03  -9.354226e-03  0 
 -1.181318e-03  -9.242100e-03  0 
 -1.285264e-03  -9.249666e-03  0 
 -4.558747e-04  -2.478097e-02  0 
 3.111918e-04  -3.003532e-02  0 
 -1.155237e-03  -9.406577e-03  0 
 -1.326688e-03  -9.367394e-03  0 
 -1.347959e-03  -9.484058e-03  0 
 -1.319760e-03  -9.424928e-03  0 
 -1.252718e-03  -9.307306e-03  0 
 -1.277537e-03  -9.548393e-03  0 
 -1.119243e-03  -9.509988e-03  0 
 -1.149993e-03  -9.329873e-03  0 
 -1.248788e-03  -9.455126e-03  0 
 -1.238865e-03  -9.383170e-03  0 
 -1.330002e-03  -9.309436e-03  0 
 -1.364116e-03  -9.537223e-03  0 
 -4.410184e-03  -1.194452e-02  0 
 -4.178547e-03  -1.013738e-02  0 
 -4.415512e-03  -1.077554e-02  0 
 -2.223989e-03  -1.932719e-02  0 
 7.553696e-04  -2.062440e-02  0 
 -3.425689e-03  -1.015486e-02  0 
 -2.756081e-03  -1.404773e-02  0 
 -4.858003e-04  -1.231025e-02  0 
 -3.652850e-03  -1.414798e-02  0 
VECTORS displacement_ITER21 FLOAT
 -2.440379e-03  -8.369148e-03  0 
 -2.339341e-03  -8.548063e-03  0 
 -2.489303e-03  -8.392679e-03  0 
 -2.475850e-03  -8.390803e-03  0 
 -2.459063e-03  -8.373306e-03  0 
 -2.381125e-03  -8.326593e-03  0 
 -2.419044e-03  -8.335053e-03  0 
 -1.344608e-03  -2.438753e-02  0 
 -3.666127e-04  -3.063963e-02  0 
 -2.369871e-03  -8.365907e-03  0 
 -2.443761e-03  -8.364619e-03  0 
 -2.464981e-03  -8.390937e-03  0 
 -2.447017e-03  -8.376918e-03  0 
 -2.410343e-03  -8.341033e-03  0 
 -2.435100e-03  -8.418322e-03  0 
 -2.343151e-03  -8.414395e-03  0 
 -2.362946e-03  -8.339923e-03  0 
 -2.418214e-03  -8.381323e-03  0 
 -2.409140e-03  -8.361476e-03  0 
 -2.438572e-03  -8.353670e-03  0 
 -2.473058e-03  -8.396970e-03  0 
 -5.600232e-03  -1.114662e-02  0 
 -5.477527e-03  -9.195320e-03  0 
 -5.692459e-03  -9.937562e-03  0 
 -3.305252e-03  -1.902683e-02  0 
 -4.407582e-05  -2.089152e-02  0 
 -4.814889e-03  -9.452685e-03  0 
 -3.960024e-03  -1.358340e-02  0 
 -1.635138e-03  -1.221132e-02  0 
 -4.723456e-03  -1.340774e-02  0 
VECTORS displacement_ITER22 FLOAT
 -2.612062e-03  -8.272567e-03  0 
 -2.325233e-03  -8.821394e-03  0 
 -2.661314e-03  -8.573040e-03  0 
 -2.647454e-03  -8.478907e-03  0 
 -2.630673e-03  -8.368955e-03  0 
 -2.367220e-03  -8.229101e-03  0 
 -2.498407e-03  -8.238272e-03  0 
 -1.512056e-03  -2.417201e-02  0 
 -5.191869e-04  -2.993382e-02  0 
 -2.337026e-03  -8.443702e-03  0 
 -2.546372e-03  -8.390250e-03  0 
 -2.568112e-03  -8.541006e-03  0 
 -2.535637e-03  -8.464884e-03  0 
 -2.456750e-03  -8.316382e-03  0 
 -2.481586e-03  -8.619066e-03  0 
 -2.297359e-03  -8.567809e-03  0 
 -2.332402e-03  -8.348431e-03  0 
 -2.448178e-03  -8.504673e-03  0 
 -2.437834e-03  -8.413230e-03  0 
 -2.552980e-03  -8.314338e-03  0 
 -2.588256e-03  -8.612106e-03  0 
 -5.660170e-03  -1.108446e-02  0 
 -5.456506e-03  -9.311685e-03  0 
 -5.688209e-03  -9.936289e-03  0 
 -3.347854e-03  -1.872635e-02  0 
 -1.681401e-04  -2.035561e-02  0 
 -4.746409e-03  -9.451455e-03  0 
 -3.950357e-03  -1.338835e-02  0 
 -1.669847e-03  -1.193640e-02  0 
 -4.857746e-03  -1.329983e-02  0 
VECTORS displacement_ITER23 FLOAT
 -1.774539e-03  -8.705049e-03  0 
 -2.190178e-03  -7.847631e-03  0 
 -1.823377e-03  -7.952768e-03  0 
 -1.809284e-03  -8.209759e-03  0 
 -1.792772e-03  -8.450698e-03  0 
 -2.230995e-03  -8.661742e-03  0 
 -2.011747e-03  -8.671238e-03  0 
 -6.345086e-04  -2.411847e-02  0 
 6.734602e-05  -2.953583e-02  0 
 -2.275581e-03  -8.213909e-03  0 
 -1.970873e-03  -8.358574e-03  0 
 -1.992005e-03  -8.034546e-03  0 
 -2.013738e-03  -8.195483e-03  0 
 -2.095110e-03  -8.477087e-03  0 
 -2.119057e-03  -7.920097e-03  0 
 -2.284004e-03  -8.050292e-03  0 
 -2.262830e-03  -8.384690e-03  0 
 -2.148451e-03  -8.100438e-03  0 
 -2.142894e-03  -8.282409e-03  0 
 -1.933094e-03  -8.529659e-03  0 
 -1.968485e-03  -7.858052e-03  0 
 -4.618174e-03  -1.106916e-02  0 
 -4.404124e-03  -8.999862e-03  0 
 -4.601717e-03  -9.807097e-03  0 
 -2.436090e-03  -1.863560e-02  0 
 5.044509e-04  -1.998257e-02  0 
 -3.669976e-03  -9.415942e-03  0 
 -2.961620e-03  -1.326073e-02  0 
 -8.781074e-04  -1.170629e-02  0 
 -3.875890e-03  -1.339600e-02  0 
VECTORS displacement_ITER24 FLOAT
 -1.857040e-03  -8.370804e-03  0 
 -1.939971e-03  -8.178757e-03  0 
 -1.904528e-03  -8.117048e-03  0 
 -1.891247e-03  -8.208236e-03  0 
 -1.875116e-03  -8.282756e-03  0 
 -1.979888e-03  -8.326791e-03  0 
 -1.927809e-03  -8.336901e-03  0 
 -8.226695e-04  -2.383145e-02  0 
 2.551039e-05  -2.925339e-02  0 
 -1.990361e-03  -8.193623e-03  0 
 -1.928821e-03  -8.244771e-03  0 
 -1.950332e-03  -8.145283e-03  0 
 -1.946408e-03  -8.194070e-03  0 
 -1.951856e-03  -8.272322e-03  0 
 -1.976428e-03  -8.121678e-03  0 
 -1.976236e-03  -8.166292e-03  0 
 -1.981658e-03  -8.238610e-03  0 
 -1.976093e-03  -8.162804e-03  0 
 -1.968202e-03  -8.215327e-03  0 
 -1.912272e-03  -8.298664e-03  0 
 -1.947587e-03  -8.085428e-03  0 
 -4.771819e-03  -1.082031e-02  0 
 -4.324182e-03  -8.763502e-03  0 
 -4.646790e-03  -9.466946e-03  0 
 -2.580754e-03  -1.828825e-02  0 
 6.280248e-04  -1.946766e-02  0 
 -3.451943e-03  -8.601040e-03  0 
 -2.980939e-03  -1.270687e-02  0 
 -3.375862e-04  -1.039479e-02  0 
 -4.046728e-03  -1.313081e-02  0 
VECTORS displacement_ITER25 FLOAT
 -2.904723e-03  -8.067464e-03  0 
 -2.563038e-03  -8.725335e-03  0 
 -2.951387e-03  -8.449122e-03  0 
 -2.939091e-03  -8.329009e-03  0 
 -2.923086e-03  -8.191209e-03  0 
 -2.601913e-03  -8.021180e-03  0 
 -2.763422e-03  -8.032537e-03  0 
 -1.656042e-03  -2.410211e-02  0 
 -2.455763e-04  -2.995912e-02  0 
 -2.569179e-03  -8.289580e-03  0 
 -2.818245e-03  -8.221940e-03  0 
 -2.840711e-03  -8.409074e-03  0 
 -2.803783e-03  -8.314616e-03  0 
 -2.711881e-03  -8.133122e-03  0 
 -2.737978e-03  -8.501450e-03  0 
 -2.526020e-03  -8.436699e-03  0 
 -2.565497e-03  -8.173882e-03  0 
 -2.699407e-03  -8.364540e-03  0 
 -2.688305e-03  -8.251763e-03  0 
 -2.828589e-03  -8.126354e-03  0 
 -2.864610e-03  -8.498005e-03  0 
 -5.827894e-03  -1.072109e-02  0 
 -5.044393e-03  -8.531358e-03  0 
 -5.523647e-03  -9.166444e-03  0 
 -3.350091e-03  -1.838844e-02  0 
 5.889614e-04  -1.960883e-02  0 
 -3.799547e-03  -7.616879e-03  0 
 -3.576665e-03  -1.235707e-02  0 
 1.399436e-04  -9.143658e-03  0 
 -5.096504e-03  -1.308499e-02  0 
VECTORS displacement_ITER26 FLOAT
 -1.500808e-03  -8.646763e-03  0 
 -1.727275e-03  -8.167273e-03  0 
 -1.545464e-03  -8.176474e-03  0 
 -1.533650e-03  -8.341113e-03  0 
 -1.518401e-03  -8.487073e-03  0 
 -1.764799e-03  -8.601368e-03  0 
 -1.643074e-03  -8.612852e-03  0 
 -4.827551e-04  -2.387348e-02  0 
 5.197179e-04  -2.907847e-02  0 
 -1.793261e-03  -8.333289e-03  0 
 -1.625775e-03  -8.426462e-03  0 
 -1.647741e-03  -8.229031e-03  0 
 -1.654780e-03  -8.326582e-03  0 
 -1.692587e-03  -8.493419e-03  0 
 -1.718476e-03  -8.165177e-03  0 
 -1.789138e-03  -8.247755e-03  0 
 -1.783005e-03  -8.433162e-03  0 
 -1.730644e-03  -8.267191e-03  0 
 -1.723216e-03  -8.375812e-03  0 
 -1.600369e-03  -8.530563e-03  0 
 -1.636091e-03  -8.116774e-03  0 
 -4.294213e-03  -1.081384e-02  0 
 -3.451918e-03  -8.472527e-03  0 
 -3.949628e-03  -9.188786e-03  0 
 -2.113229e-03  -1.814045e-02  0 
 1.363099e-03  -1.896948e-02  0 
 -2.421910e-03  -7.749755e-03  0 
 -2.290646e-03  -1.218125e-02  0 
 8.391041e-04  -8.919786e-03  0 
 -3.654703e-03  -1.324008e-02  0 
VECTORS displacement_ITER27 FLOAT
 -1.256191e-03  -9.414555e-03  0 
 -2.423778e-03  -7.051323e-03  0 
 -1.299201e-03  -7.534303e-03  0 
 -1.287412e-03  -8.169367e-03  0 
 -1.272894e-03  -8.785377e-03  0 
 -2.459820e-03  -9.370701e-03  0 
 -1.868228e-03  -9.382058e-03  0 
 -5.073931e-04  -2.362212e-02  0 
 -1.219153e-04  -2.817030e-02  0 
 -2.588380e-03  -8.214406e-03  0 
 -1.731668e-03  -8.573106e-03  0 
 -1.752508e-03  -7.739486e-03  0 
 -1.832417e-03  -8.154710e-03  0 
 -2.085171e-03  -8.897888e-03  0 
 -2.109926e-03  -7.417397e-03  0 
 -2.648833e-03  -7.743379e-03  0 
 -2.567288e-03  -8.670776e-03  0 
 -2.206297e-03  -7.914628e-03  0 
 -2.205256e-03  -8.389602e-03  0 
 -1.646916e-03  -9.008019e-03  0 
 -1.682010e-03  -7.295091e-03  0 
 -3.910064e-03  -1.094003e-02  0 
 -3.228439e-03  -8.443768e-03  0 
 -3.640880e-03  -9.324418e-03  0 
 -2.138194e-03  -1.795236e-02  0 
 5.747741e-04  -1.850299e-02  0 
 -2.622302e-03  -8.417776e-03  0 
 -2.389042e-03  -1.224950e-02  0 
 -4.131941e-04  -9.523619e-03  0 
 -3.344383e-03  -1.344555e-02  0 
VECTORS displacement_ITER28 FLOAT
 -1.235145e-03  -9.245653e-03  0 