# vtk DataFile Version 3.1
this is an vtk file created by FEMAC
ASCII
DATASET UNSTRUCTURED_GRID
POINTS 31 FLOAT
5.000000 5.000000 0.000000
6.000000 4.000000 0.000000
6.000000 5.000000 0.000000
5.000000 4.250000 0.000000
5.000000 4.500000 0.000000
5.000000 4.750000 0.000000
5.000000 5.250000 0.000000
5.500000 4.000000 0.000000
5.750000 4.000000 0.000000
5.250000 5.000000 0.000000
5.500000 5.000000 0.000000
5.750000 5.000000 0.000000
6.000000 4.250000 0.000000
6.000000 4.500000 0.000000
6.000000 4.750000 0.000000
4.661856 4.507893 0.000000
4.832250 4.761003 0.000000
4.832172 4.245757 0.000000
5.805000 4.255000 0.000000
5.361666 4.785642 0.000000
5.824607 4.643596 0.000000
5.630982 4.182178 0.000000
5.161848 4.344773 0.000000
5.223020 4.573994 0.000000
5.460006 4.535834 0.000000
5.681647 4.425464 0.000000
5.631588 4.748141 0.000000
5.841239 4.828347 0.000000
5.155331 4.836478 0.000000
5.384851 4.278430 0.000000
5.255000 5.195000 0.000000
CELLS 42 168 
3 16  5  0
3 16  4  5
3 16 15  4
3 4 17  3
3 15 17  4
3 13 18 12
3 19 10  9
3 3 22  4
3 23  5  4
3 8 21  7
3 14 20 13
3 25 21 18
3 23 24 19
3 18 21  8
3 13 25 18
3 13 20 25
3 25 20 26
3 1 18  8
3 1 12 18
3 11 27  2
3 27 14  2
3 5 28  0
3 9 28 19
3 28  9  0
3 27 20 14
3 23 28  5
3 23 19 28
3 4 22 23
3 26 24 25
3 21 29  7
3 23 22 29
3 29 21 25
3 25 24 29
3 29 24 23
3 10 26 11
3 27 11 26
3 26 20 27
3 19 26 10
3 19 24 26
3 10 30  9
3 0 30  6
3 0  9 30
CELL_TYPES 42
5 5 5 5 5 5 5 5 5 5 5 5 5 5 5 5 5 5 5 5 5 5 5 5 5 5 5 5 5 5 5 5 5 5 5 5 5 5 5 5 5 5 
POINT_DATA 31
VECTORS displacement_ITER1 FLOAT
 1.195189e-01  -3.149815e-01  0 
 1.017232e-01  -3.860210e-01  0 
 1.329277e-01  -4.777089e-01  0 
 6.264730e-02  -3.149320e-01  0 
 8.160082e-02  -3.149538e-01  0 
 1.005633e-01  -3.149695e-01  0 
 1.538007e-01  -3.149994e-01  0 
 9.740950e-02  -3.807274e-01  0 
 9.450438e-02  -3.817359e-01  0 
 1.195301e-01  -3.492816e-01  0 
 1.195439e-01  -3.835867e-01  0 
 1.263803e-01  -4.279406e-01  0 
 9.275214e-02  -4.034845e-01  0 
 9.211380e-02  -4.257442e-01  0 
 1.078790e-01  -4.507408e-01  0 
 8.219001e-02  -2.892882e-01  0 
 1.013939e-01  -3.022375e-01  0 
 6.231885e-02  -3.022012e-01  0 
 8.531743e-02  -3.954624e-01  0 
 1.017444e-01  -3.642558e-01  0 
 9.370640e-02  -4.196959e-01  0 
 8.304028e-02  -3.826268e-01  0 
 7.128467e-02  -3.355711e-01  0 
 8.817605e-02  -3.477714e-01  0 
 8.503910e-02  -3.775618e-01  0 
 8.175258e-02  -3.969792e-01  0 
 9.746598e-02  -3.993268e-01  0 
 1.089359e-01  -4.346520e-01  0 
 1.066415e-01  -3.364296e-01  0 
 7.363183e-02  -3.728114e-01  0 
 1.462725e-01  -3.499769e-01  0 
VECTORS displacement_ITER2 FLOAT
 6.549199e-02  -1.469757e-01  0 
 5.530517e-02  -1.955475e-01  0 
 6.692217e-02  -2.328787e-01  0 
 5.339167e-02  -1.468923e-01  0 
 5.740359e-02  -1.469072e-01  0 
 6.144132e-02  -1.469359e-01  0 
 8.589106e-02  -1.470198e-01  0 
 3.783901e-02  -1.688604e-01  0 
 4.783273e-02  -1.858128e-01  0 
 6.550665e-02  -1.674117e-01  0 
 6.552629e-02  -1.878359e-01  0 
 6.918197e-02  -2.111071e-01  0 
 5.478112e-02  -2.082596e-01  0 
 5.734756e-02  -2.184294e-01  0 
 6.413918e-02  -2.258366e-01  0 
 5.753120e-02  -1.414485e-01  0 
 6.161004e-02  -1.442115e-01  0 
 5.332157e-02  -1.441947e-01  0 
 5.069360e-02  -1.987727e-01  0 
 6.094062e-02  -1.741013e-01  0 
 5.893474e-02  -2.092605e-01  0 
 4.757061e-02  -1.864385e-01  0 
 5.201188e-02  -1.553748e-01  0 
 5.710169e-02  -1.614265e-01  0 
 5.544165e-02  -1.795119e-01  0 
 5.312805e-02  -1.943640e-01  0 
 6.019700e-02  -1.951930e-01  0 
 6.385199e-02  -2.163423e-01  0 
 6.214204e-02  -1.583872e-01  0 
 4.809341e-02  -1.711472e-01  0 
 8.142616e-02  -1.678379e-01  0 
VECTORS displacement_ITER3 FLOAT
 3.120897e-02  -6.196071e-02  0 
 1.953300e-02  -9.308879e-02  0 
 3.007381e-02  -1.183061e-01  0 
 2.327619e-02  -6.189172e-02  0 
 2.593689e-02  -6.189829e-02  0 
 2.859206e-02  -6.191180e-02  0 
 4.819200e-02  -6.204087e-02  0 
 2.026468e-02  -6.890379e-02  0 
 1.647817e-02  -7.469995e-02  0 
 3.121653e-02  -7.901342e-02  0 
 3.123117e-02  -9.602915e-02  0 
 3.222528e-02  -1.072349e-01  0 
 2.733559e-02  -1.036884e-01  0 
 3.160336e-02  -1.115919e-01  0 
 3.288109e-02  -1.164472e-01  0 
 2.602452e-02  -5.828463e-02  0 
 2.870373e-02  -6.012437e-02  0 
 2.322825e-02  -6.010610e-02  0 
 2.465655e-02  -9.018788e-02  0 
 2.825562e-02  -8.266669e-02  0 
 3.094876e-02  -1.053547e-01  0 
 2.004445e-02  -7.666415e-02  0 
 2.138953e-02  -6.576830e-02  0 
 2.494925e-02  -7.094021e-02  0 
 2.520193e-02  -8.234798e-02  0 
 2.541718e-02  -8.998504e-02  0 
 3.011823e-02  -9.714424e-02  0 
 3.174193e-02  -1.101453e-01  0 
 2.872398e-02  -7.066253e-02  0 
 1.829065e-02  -7.189703e-02  0 
 4.448750e-02  -7.937285e-02  0 
VECTORS displacement_ITER4 FLOAT
 9.668981e-03  -2.192438e-02  0 
 1.332632e-03  -2.811098e-02  0 
 9.046800e-03  -7.233168e-02  0 
 5.630929e-03  -2.180993e-02  0 
 6.958924e-03  -2.181528e-02  0 
 8.292702e-03  -2.184897e-02  0 
 2.244158e-02  -2.202731e-02  0 
 4.928395e-03  -2.701739e-02  0 
 -4.593095e-04  -2.695170e-02  0 
 9.673157e-03  -3.479185e-02  0 
 9.690136e-03  -4.763320e-02  0 
 1.140159e-02  -6.110862e-02  0 
 7.477289e-03  -4.935486e-02  0 
 9.389712e-03  -6.292777e-02  0 
 1.124459e-02  -7.004295e-02  0 
 7.009004e-03  -2.000042e-02  0 
 8.336211e-03  -2.092522e-02  0 
 5.600530e-03  -2.090921e-02  0 
 2.064432e-03  -3.984003e-02  0 
 7.205285e-03  -3.710887e-02  0 
 8.453972e-03  -5.807166e-02  0 
 -2.571968e-04  -3.045634e-02  0 
 2.118726e-03  -2.546470e-02  0 
 4.687828e-03  -2.803843e-02  0 
 3.323662e-03  -3.721591e-02  0 
 2.506609e-03  -4.237468e-02  0 
 7.825986e-03  -5.001868e-02  0 
 1.017427e-02  -6.374986e-02  0 
 7.881073e-03  -2.810132e-02  0 
 -2.499012e-03  -2.967612e-02  0 
 1.967968e-02  -3.506498e-02  0 
VECTORS displacement_ITER5 FLOAT
 6.019512e-03  -1.015462e-02  0 
 3.537552e-03  -1.468296e-02  0 
 5.777797e-03  -5.530639e-02  0 
 3.493541e-03  -9.993953e-03  0 
 4.295393e-03  -1.001989e-02  0 
 5.139207e-03  -1.006116e-02  0 
 1.700117e-02  -1.027280e-02  0 
 3.293781e-03  -9.819521e-03  0 
 3.652091e-03  -1.242123e-02  0 
 6.019295e-03  -2.124877e-02  0 
 6.033799e-03  -3.231495e-02  0 
 7.334961e-03  -4.425486e-02  0 
 8.126653e-03  -3.323794e-02  0 
 8.327857e-03  -4.544093e-02  0 
 8.243433e-03  -5.246646e-02  0 
 4.326330e-03  -8.876856e-03  0 
 5.157387e-03  -9.465013e-03  0 
 3.456914e-03  -9.450311e-03  0 
 3.380440e-03  -2.435142e-02  0 
 4.318871e-03  -2.351545e-02  0 
 6.312055e-03  -4.167206e-02  0 
 1.728210e-03  -1.715882e-02  0 
 1.482569e-03  -1.337272e-02  0 
 2.567825e-03  -1.585562e-02  0 
 1.997791e-03  -2.337137e-02  0 
 2.207463e-03  -2.750748e-02  0 
 5.075785e-03  -3.473771e-02  0 
 6.834498e-03  -4.677211e-02  0 
 4.772749e-03  -1.563421e-02  0 
 -1.153633e-03  -1.657542e-02  0 
 1.464038e-02  -2.148349e-02  0 
VECTORS displacement_ITER6 FLOAT
 3.223192e-03  -7.534937e-03  0 
 2.064258e-03  -1.058058e-02  0 
 3.364464e-03  -4.915799e-02  0 
 2.677148e-03  -7.360255e-03  0 
 2.773799e-03  -7.396929e-03  0 
 2.974594e-03  -7.434516e-03  0 
 1.366061e-02  -7.640494e-03  0 
 2.270022e-03  -8.675894e-03  0 
 2.343018e-03  -9.902510e-03  0 
 3.222398e-03  -1.807618e-02  0 
 3.235651e-03  -2.858210e-02  0 
 3.395577e-03  -3.851980e-02  0 
 6.339248e-03  -2.926867e-02  0 
 6.332326e-03  -4.086244e-02  0 
 5.452781e-03  -4.652557e-02  0 
 2.798727e-03  -7.145321e-03  0 
 2.963572e-03  -7.262768e-03  0 
 2.639882e-03  -7.305178e-03  0 
 1.654022e-03  -2.092200e-02  0 
 2.122285e-03  -2.007047e-02  0 
 4.390385e-03  -3.676428e-02  0 
 4.188942e-04  -1.455638e-02  0 
 9.772671e-04  -1.047090e-02  0 
 9.791392e-04  -1.279452e-02  0 
 5.550685e-04  -1.959009e-02  0 
 8.838521e-04  -2.345023e-02  0 
 3.101735e-03  -3.050415e-02  0 
 4.087137e-03  -4.072454e-02  0 
 2.410803e-03  -1.269215e-02  0 
 -1.298525e-03  -1.331629e-02  0 
 1.141014e-02  -1.830053e-02  0 
VECTORS displacement_ITER7 FLOAT
 2.976176e-03  -6.170024e-03  0 
 2.035221e-03  -8.252016e-03  0 
 3.092064e-03  -4.698570e-02  0 
 2.284051e-03  -6.062754e-03  0 
 2.469393e-03  -6.063320e-03  0 
 2.717447e-03  -6.084409e-03  0 
 1.319495e-02  -6.275165e-03  0 
 2.187914e-03  -6.858674e-03  0 
 2.107262e-03  -7.696760e-03  0 
 2.973004e-03  -1.649221e-02  0 
 2.983196e-03  -2.677882e-02  0 
 2.976848e-03  -3.669510e-02  0 
 6.282205e-03  -2.716892e-02  0 
 6.114836e-03  -3.887429e-02  0 
 5.132609e-03  -4.454838e-02  0 
 2.501211e-03  -5.730962e-03  0 
 2.714593e-03  -5.890843e-03  0 
 2.274191e-03  -5.950617e-03  0 
 1.549082e-03  -1.895008e-02  0 
 1.883463e-03  -1.845469e-02  0 
 4.119257e-03  -3.488587e-02  0 
 3.308301e-04  -1.270002e-02  0 
 8.757801e-04  -8.962646e-03  0 
 7.806215e-04  -1.134459e-02  0 
 2.824134e-04  -1.805142e-02  0 
 6.408208e-04  -2.163836e-02  0 
 2.801897e-03  -2.878260e-02  0 
 3.797746e-03  -3.876437e-02  0 
 2.169273e-03  -1.123097e-02  0 
 -1.369269e-03  -1.216267e-02  0 
 1.099061e-02  -1.671006e-02  0 
VECTORS displacement_ITER8 FLOAT
 2.827756e-03  -6.010121e-03  0 
 1.746425e-03  -7.453098e-03  0 
 2.413998e-03  -4.652947e-02  0 
 1.867694e-03  -5.907672e-03  0 
 2.157948e-03  -5.895727e-03  0 
 2.466824e-03  -5.929239e-03  0 
 1.292680e-02  -6.121516e-03  0 
 1.746603e-03  -6.543793e-03  0 
 1.733340e-03  -7.084643e-03  0 
 2.827194e-03  -1.622187e-02  0 
 2.842158e-03  -2.639962e-02  0 
 2.793325e-03  -3.672099e-02  0 
 6.037286e-03  -2.669277e-02  0 
 6.007850e-03  -3.855812e-02  0 
 5.086385e-03  -4.426018e-02  0 
 2.178845e-03  -5.470688e-03  0 
 2.463577e-03  -5.688668e-03  0 
 1.865288e-03  -5.701265e-03  0 
 1.216193e-03  -1.848400e-02  0 
 1.656882e-03  -1.815192e-02  0 
 4.011610e-03  -3.457337e-02  0 
 -7.014707e-05  -1.220743e-02  0 
 5.906978e-04  -8.651152e-03  0 
 4.467138e-04  -1.104416e-02  0 
 6.345595e-05  -1.755932e-02  0 
 4.995880e-04  -2.111655e-02  0 
 2.579360e-03  -2.852290e-02  0 
 3.641174e-03  -3.871014e-02  0 
 1.955866e-03  -1.099913e-02  0 
 -1.515687e-03  -1.124081e-02  0 
 1.075716e-02  -1.644006e-02  0 
VECTORS displacement_ITER9 FLOAT
 2.770986e-03  -5.739076e-03  0 
 1.831929e-03  -7.536096e-03  0 
 2.971207e-03  -4.621057e-02  0 
 1.914412e-03  -5.635829e-03  0 
 2.181384e-03  -5.635656e-03  0 
 2.467732e-03  -5.666581e-03  0 
 1.288036e-02  -5.849651e-03  0 
 1.796552e-03  -6.670507e-03  0 
 1.835012e-03  -7.065780e-03  0 
 2.770246e-03  -1.595989e-02  0 
 2.782769e-03  -2.614057e-02  0 
 2.839620e-03  -3.632635e-02  0 
 6.069020e-03  -2.657958e-02  0 
 6.060553e-03  -3.826825e-02  0 
 5.162551e-03  -4.387691e-02  0 
 2.198023e-03  -5.239699e-03  0 
 2.466512e-03  -5.453282e-03  0 
 1.912337e-03  -5.456266e-03  0 
 1.303517e-03  -1.837241e-02  0 
 1.651887e-03  -1.791982e-02  0 
 4.114737e-03  -3.415395e-02  0 
 4.050797e-05  -1.215689e-02  0 
 6.214630e-04  -8.568491e-03  0 
 4.683412e-04  -1.089955e-02  0 
 2.071241e-04  -1.721580e-02  0 
 6.798528e-04  -2.081282e-02  0 
 2.686564e-03  -2.811572e-02  0 
 3.795180e-03  -3.816222e-02  0 
 1.945009e-03  -1.075844e-02  0 
 -1.163650e-03  -1.087216e-02  0 
 1.070734e-02  -1.617843e-02  0 
VECTORS displacement_ITER10 FLOAT
 2.753329e-03  -5.691424e-03  0 
 1.849968e-03  -7.443969e-03  0 
 2.762002e-03  -4.630286e-02  0 
 1.937952e-03  -5.580971e-03  0 
 2.189982e-03  -5.566513e-03  0 
 2.460910e-03  -5.600473e-03  0 
 1.284862e-02  -5.795574e-03  0 
 1.789155e-03  -6.530007e-03  0 
 1.822632e-03  -6.969667e-03  0 
 2.753370e-03  -1.588968e-02  0 
 2.765761e-03  -2.604355e-02  0 
 2.770032e-03  -3.615327e-02  0 
 6.088479e-03  -2.648897e-02  0 
 6.042924e-03  -3.817699e-02  0 
 5.074028e-03  -4.379747e-02  0 
 2.210145e-03  -5.190780e-03  0 
 2.455881e-03  -5.391383e-03  0 
 1.942877e-03  -5.407181e-03  0 
 1.325818e-03  -1.829597e-02  0 
 1.629718e-03  -1.785426e-02  0 
 4.056586e-03  -3.411177e-02  0 
 7.126230e-05  -1.208620e-02  0 
 5.302954e-04  -8.453825e-03  0 
 4.706788e-04  -1.086672e-02  0 
 1.806122e-04  -1.720003e-02  0 
 6.604166e-04  -2.076766e-02  0 
 2.619649e-03  -2.807468e-02  0 
 3.648575e-03  -3.814039e-02  0 
 1.934693e-03  -1.069821e-02  0 
 -1.147175e-03  -1.091251e-02  0 
 1.067227e-02  -1.610885e-02  0 
VECTORS displacement_ITER11 FLOAT
 2.748475e-03  -5.688048e-03  0 
 1.861189e-03  -7.451011e-03  0 
 2.771990e-03  -4.627560e-02  0 
 1.935098e-03  -5.589934e-03  0 
 2.188612e-03  -5.574101e-03  0 
 2.456230e-03  -5.604491e-03  0 
 1.285681e-02  -5.776259e-03  0 
 1.804663e-03  -6.526100e-03  0 
 1.833606e-03  -6.974611e-03  0 
 2.749472e-03  -1.587977e-02  0 
 2.764522e-03  -2.602716e-02  0 
 2.769623e-03  -3.615240e-02  0 
 6.126731e-03  -2.648548e-02  0 
 6.066505e-03  -3.815169e-02  0 
 5.085772e-03  -4.377458e-02  0 
 2.209475e-03  -5.202279e-03  0 
 2.452440e-03  -5.397716e-03  0 
 1.939892e-03  -5.414532e-03  0 
 1.373169e-03  -1.829166e-02  0 
 1.635770e-03  -1.784916e-02  0 
 4.070984e-03  -3.409241e-02  0 
 1.386054e-04  -1.211196e-02  0 
 4.840312e-04  -8.312316e-03  0 
 5.039649e-04  -1.088281e-02  0 
 2.039587e-04  -1.721672e-02  0 
 6.930621e-04  -2.075812e-02  0 
 2.623080e-03  -2.806660e-02  0 
 3.658244e-03  -3.812380e-02  0 
 1.933979e-03  -1.070191e-02  0 
 -1.041183e-03  -1.101739e-02  0 
 1.066153e-02  -1.610017e-02  0 
VECTORS displacement_ITER12 FLOAT
 2.749567e-03  -5.687092e-03  0 
 1.858333e-03  -7.448859e-03  0 
 2.772191e-03  -4.627369e-02  0 
 1.935542e-03  -5.588533e-03  0 
 2.187674e-03  -5.573107e-03  0 
 2.455898e-03  -5.603977e-03  0 
 1.285552e-02  -5.776457e-03  0 
 1.804329e-03  -6.524590e-03  0 
 1.832418e-03  -6.975277e-03  0 
 2.749287e-03  -1.587761e-02  0 
 2.763636e-03  -2.602770e-02  0 
 2.769380e-03  -3.615066e-02  0 
 6.124455e-03  -2.648480e-02  0 
 6.063120e-03  -3.815237e-02  0 
 5.083120e-03  -4.377555e-02  0 
 2.208528e-03  -5.200931e-03  0 
 2.452084e-03  -5.396864e-03  0 
 1.940293e-03  -5.414335e-03  0 
 1.370561e-03  -1.829124e-02  0 
 1.635437e-03  -1.784827e-02  0 
 4.068077e-03  -3.409348e-02  0 
 1.368195e-04  -1.211244e-02  0 
 4.830485e-04  -8.307574e-03  0 
 5.043703e-04  -1.088092e-02  0 
 2.014746e-04  -1.721874e-02  0 
 6.884781e-04  -2.076020e-02  0 
 2.621928e-03  -2.806652e-02  0 
 3.657077e-03  -3.812303e-02  0 
 1.933929e-03  -1.070106e-02  0 
 -1.047118e-03  -1.102528e-02  0 
 1.066122e-02  -1.609646e-02  0 
VECTORS displacement_ITER13 FLOAT
 2.749505e-03  -5.687274e-03  0 
 1.858707e-03  -7.448938e-03  0 
 2.772205e-03  -4.627397e-02  0 
 1.935507e-03  -5.588722e-03  0 
 2.187781e-03  -5.573274e-03  0 
 2.455929e-03  -5.604126e-03  0 
 1.285553e-02  -5.776582e-03  0 
 1.804680e-03  -6.524418e-03  0 
 1.832514e-03  -6.974985e-03  0 
 2.749247e-03  -1.587781e-02  0 
 2.763670e-03  -2.602801e-02  0 
 2.769438e-03  -3.615092e-02  0 
 6.124619e-03  -2.648479e-02  0 
 6.063170e-03  -3.815248e-02  0 
 5.083147e-03  -4.377580e-02  0 
 2.208656e-03  -5.200920e-03  0 
 2.452111e-03  -5.397052e-03  0 
 1.940237e-03  -5.414450e-03  0 
 1.370711e-03  -1.829126e-02  0 
 1.635447e-03  -1.784843e-02  0 
 4.068071e-03  -3.409371e-02  0 
 1.368440e-04  -1.211224e-02  0 
 4.830893e-04  -8.307833e-03  0 
 5.043922e-04  -1.088100e-02  0 
 2.014378e-04  -1.721896e-02  0 
 6.884413e-04  -2.076041e-02  0 
 2.621932e-03  -2.806676e-02  0 
 3.657097e-03  -3.812330e-02  0 
 1.933925e-03  -1.070121e-02  0 
 -1.047474e-03  -1.102545e-02  0 
 1.066117e-02  -1.609668e-02  0 
VECTORS displacement_ITER14 FLOAT
 2.749476e-03  -5.687288e-03  0 
 1.858674e-03  -7.448932e-03  0 
 2.772176e-03  -4.627398e-02  0 
 1.935476e-03  -5.588706e-03  0 
 2.187744e-03  -5.573279e-03  0 
 2.455895e-03  -5.604139e-03  0 
 1.285550e-02  -5.776595e-03  0 
 1.804593e-03  -6.524442e-03  0 
 1.832480e-03  -6.975012e-03  0 
 2.749218e-03  -1.587783e-02  0 
 2.763641e-03  -2.602802e-02  0 
 2.769408e-03  -3.615093e-02  0 
 6.124584e-03  -2.648480e-02  0 
 6.063153e-03  -3.815249e-02  0 
 5.083133e-03  -4.377580e-02  0 
 2.208613e-03  -5.200926e-03  0 
 2.452076e-03  -5.397066e-03  0 
 1.940196e-03  -5.414444e-03  0 
 1.370671e-03  -1.829128e-02  0 
 1.635411e-03  -1.784845e-02  0 
 4.068060e-03  -3.409371e-02  0 
 1.368050e-04  -1.211227e-02  0 
 4.830675e-04  -8.307900e-03  0 
 5.043458e-04  -1.088102e-02  0 
 2.014207e-04  -1.721894e-02  0 
 6.884368e-04  -2.076040e-02  0 
 2.621911e-03  -2.806676e-02  0 
 3.657075e-03  -3.812331e-02  0 
 1.933893e-03  -1.070122e-02  0 
 -1.047456e-03  -1.102538e-02  0 
 1.066114e-02  -1.609669e-02  0 
CELL_DATA 42
TENSORS element_stresses FLOAT
 2.056563e-05  -6.301040e-02  0 
 -6.301040e-02  -3.325866e-01  0 
 0  0  0 

 6.163985e-02  -1.307022e-01  0 
 -1.307022e-01  -1.049484e-01  0 
 0  0  0 

 -5.338977e-02  -8.771751e-02  0 
 -8.771751e-02  -4.910650e-02  0 
 0  0  0 

 -3.859621e-02  -2.371371e-02  0 
 -2.371371e-02  5.012689e-02  0 
 0  0  0 

 -9.031358e-03  -7.677417e-02  0 
 -7.677417e-02  9.789080e-02  0 
 0  0  0 

 1.139727e-02  -3.343113e-02  0 
 -3.343113e-02  -4.325157e-02  0 
 0  0  0 

 -3.878480e-03  -2.721131e-02  0 
 -2.721131e-02  -1.312057e-02  0 
 0  0  0 

 -1.049044e-02  -1.217540e-02  0 
 -1.217540e-02  -3.085426e-03  0 
 0  0  0 

 -8.726485e-03  -1.745066e-02  0 
 -1.745066e-02  -2.741386e-03  0 
 0  0  0 

 -9.561967e-03  -8.490134e-03  0 
 -8.490134e-03  -3.224504e-02  0 
 0  0  0 

 1.557816e-03  -3.498212e-02  0 
 -3.498212e-02  -2.202591e-02  0 
 0  0  0 

 -2.773785e-03  -1.671987e-02  0 
 -1.671987e-02  -3.167236e-02  0 
 0  0  0 

 -5.007906e-03  -1.799651e-02  0 
 -1.799651e-02  -1.543349e-02  0 
 0  0  0 

 -3.825963e-03  -1.714562e-02  0 
 -1.714562e-02  -4.150975e-02  0 
 0  0  0 

 1.517272e-03  -2.830157e-02  0 
 -2.830157e-02  -4.573649e-02  0 
 0  0  0 

 7.346281e-03  -3.261331e-02  0 
 -3.261331e-02  -2.770592e-02  0 
 0  0  0 

 2.989156e-03  -3.051344e-02  0 
 -3.051344e-02  -2.911179e-02  0 
 0  0  0 

 -1.438002e-02  -2.868688e-03  0 
 -2.868688e-03  -4.828265e-02  0 
 0  0  0 

 2.168714e-03  -2.069754e-02  0 
 -2.069754e-02  -7.549286e-02  0 
 0  0  0 

 -3.295252e-03  -3.512124e-02  0 
 -3.512124e-02  -1.102107e-02  0 
 0  0  0 

 1.563557e-03  -3.829155e-02  0 
 -3.829155e-02  -9.523668e-03  0 
 0  0  0 

 -4.521035e-03  -2.419603e-02  0 
 -2.419603e-02  -1.688903e-03  0 
 0  0  0 

 -3.557500e-03  -2.464948e-02  0 
 -2.464948e-02  -1.122192e-02  0 
 0  0  0 

 -2.657680e-03  -2.751964e-02  0 
 -2.751964e-02  -8.855490e-03  0 
 0  0  0 

 2.423004e-03  -3.638406e-02  0 
 -3.638406e-02  -1.708751e-02  0 
 0  0  0 

 -8.384972e-03  -1.924883e-02  0 
 -1.924883e-02  -9.316222e-03  0 
 0  0  0 

 -3.026421e-03  -2.414732e-02  0 
 -2.414732e-02  -9.715145e-03  0 
 0  0  0 

 -1.090060e-02  -1.516404e-02  0 
 -1.516404e-02  -8.617826e-03  0 
 0  0  0 

 -2.805076e-03  -1.744028e-02  0 
 -1.744028e-02  -2.806652e-02  0 
 0  0  0 

 -6.019364e-03  -1.742685e-02  0 
 -1.742685e-02  -2.326861e-02  0 
 0  0  0 

 -9.394432e-03  -9.692731e-03  0 
 -9.692731e-03  -1.020533e-02  0 
 0  0  0 

 -4.765802e-03  -1.212880e-02  0 
 -1.212880e-02  -3.344964e-02  0 
 0  0  0 

 -1.156640e-03  -1.595015e-02  0 
 -1.595015e-02  -1.728130e-02  0 
 0  0  0 

 -5.639206e-03  -1.865620e-02  0 
 -1.865620e-02  -1.721513e-02  0 
 0  0  0 

 -4.280422e-03  -3.070529e-02  0 
 -3.070529e-02  -1.434497e-02  0 
 0  0  0 

 2.478529e-03  -3.510126e-02  0 
 -3.510126e-02  -1.089577e-02  0 
 0  0  0 

 6.154643e-04  -3.369335e-02  0 
 -3.369335e-02  -1.793207e-02  0 
 0  0  0 

 2.698349e-04  -2.841618e-02  0 
 -2.841618e-02  -1.251756e-02  0 
 0  0  0 

 -9.003708e-04  -2.524813e-02  0 
 -2.524813e-02  -1.870079e-02  0 
 0  0  0 

 3.657987e-02  -2.176322e-02  0 
 -2.176322e-02  -7.037542e-02  0 
 0  0  0 

 7.052710e-03  -9.533097e-02  0 
 -9.533097e-02  -3.551156e-01  0 
 0  0  0 

 -2.658939e-02  -1.447501e-01  0 
 -1.447501e-01  -8.518802e-02  0 
 0  0  0 

TENSORS element_stresses FLOAT
 2.056563e-05  -6.301040e-02  0 
 -6.301040e-02  -3.325866e-01  0 
 0  0  0 

 6.163985e-02  -1.307022e-01  0 
 -1.307022e-01  -1.049484e-01  0 
 0  0  0 

 -5.338977e-02  -8.771751e-02  0 
 -8.771751e-02  -4.910650e-02  0 
 0  0  0 

 -3.859621e-02  -2.371371e-02  0 
 -2.371371e-02  5.012689e-02  0 
 0  0  0 

 -9.031358e-03  -7.677417e-02  0 
 -7.677417e-02  9.789080e-02  0 
 0  0  0 

 1.139727e-02  -3.343113e-02  0 
 -3.343113e-02  -4.325157e-02  0 
 0  0  0 

 -3.878480e-03  -2.721131e-02  0 
 -2.721131e-02  -1.312057e-02  0 
 0  0  0 

 -1.049044e-02  -1.217540e-02  0 
 -1.217540e-02  -3.085426e-03  0 
 0  0  0 

 -8.726485e-03  -1.745066e-02  0 
 -1.745066e-02  -2.741386e-03  0 
 0  0  0 

 -9.561967e-03  -8.490134e-03  0 
 -8.490134e-03  -3.224504e-02  0 
 0  0  0 

 1.557816e-03  -3.498212e-02  0 
 -3.498212e-02  -2.202591e-02  0 
 0  0  0 

 -2.773785e-03  -1.671987e-02  0 
 -1.671987e-02  -3.167236e-02  0 
 0  0  0 

 -5.007906e-03  -1.799651e-02  0 
 -1.799651e-02  -1.543349e-02  0 
 0  0  0 

 -3.825963e-03  -1.714562e-02  0 
 -1.714562e-02  -4.150975e-02  0 
 0  0  0 

 1.517272e-03  -2.830157e-02  0 
 -2.830157e-02  -4.573649e-02  0 
 0  0  0 

 7.346281e-03  -3.261331e-02  0 
 -3.261331e-02  -2.770592e-02  0 
 0  0  0 

 2.989156e-03  -3.051344e-02  0 
 -3.051344e-02  -2.911179e-02  0 
 0  0  0 

 -1.438002e-02  -2.868688e-03  0 
 -2.868688e-03  -4.828265e-02  0 
 0  0  0 

 2.168714e-03  -2.069754e-02  0 
 -2.069754e-02  -7.549286e-02  0 
 0  0  0 

 -3.295252e-03  -3.512124e-02  0 
 -3.512124e-02  -1.102107e-02  0 
 0  0  0 

 1.563557e-03  -3.829155e-02  0 
 -3.829155e-02  -9.523668e-03  0 
 0  0  0 

 -4.521035e-03  -2.419603e-02  0 
 -2.419603e-02  -1.688903e-03  0 
 0  0  0 

 -3.557500e-03  -2.464948e-02  0 
 -2.464948e-02  -1.122192e-02  0 
 0  0  0 

 -2.657680e-03  -2.751964e-02  0 
 -2.751964e-02  -8.855490e-03  0 
 0  0  0 

 2.423004e-03  -3.638406e-02  0 
 -3.638406e-02  -1.708751e-02  0 
 0  0  0 

 -8.384972e-03  -1.924883e-02  0 
 -1.924883e-02  -9.316222e-03  0 
 0  0  0 

 -3.026421e-03  -2.414732e-02  0 
 -2.414732e-02  -9.715145e-03  0 
 0  0  0 

 -1.090060e-02  -1.516404e-02  0 
 -1.516404e-02  -8.617826e-03  0 
 0  0  0 

 -2.805076e-03  -1.744028e-02  0 
 -1.744028e-02  -2.806652e-02  0 
 0  0  0 

 -6.019364e-03  -1.742685e-02  0 
 -1.742685e-02  -2.326861e-02  0 
 0  0  0 

 -9.394432e-03  -9.692731e-03  0 
 -9.692731e-03  -1.020533e-02  0 
 0  0  0 

 -4.765802e-03  -1.212880e-02  0 
 -1.212880e-02  -3.344964e-02  0 
 0  0  0 

 -1.156640e-03  -1.595015e-02  0 
 -1.595015e-02  -1.728130e-02  0 
 0  0  0 

 -5.639206e-03  -1.865620e-02  0 
 -1.865620e-02  -1.721513e-02  0 
 0  0  0 

 -4.280422e-03  -3.070529e-02  0 
 -3.070529e-02  -1.434497e-02  0 
 0  0  0 

 2.478529e-03  -3.510126e-02  0 
 -3.510126e-02  -1.089577e-02  0 
 0  0  0 

 6.154643e-04  -3.369335e-02  0 
 -3.369335e-02  -1.793207e-02  0 
 0  0  0 

 2.698349e-04  -2.841618e-02  0 
 -2.841618e-02  -1.251756e-02  0 
 0  0  0 

 -9.003708e-04  -2.524813e-02  0 
 -2.524813e-02  -1.870079e-02  0 
 0  0  0 

 3.657987e-02  -2.176322e-02  0 
 -2.176322e-02  -7.037542e-02  0 
 0  0  0 

 7.052710e-03  -9.533097e-02  0 
 -9.533097e-02  -3.551156e-01  0 
 0  0  0 

 -2.658939e-02  -1.447501e-01  0 
 -1.447501e-01  -8.518802e-02  0 
 0  0  0 

