# vtk DataFile Version 3.1
this is an vtk file created by FEMAC
ASCII
DATASET UNSTRUCTURED_GRID
POINTS 31 FLOAT
1.000000 2.000000 0.000000
1.000000 3.000000 0.000000
0.750000 2.000000 0.000000
1.000000 2.250000 0.000000
1.000000 2.500000 0.000000
1.000000 2.750000 0.000000
1.250000 2.000000 0.000000
1.500000 2.000000 0.000000
1.250000 3.000000 0.000000
1.500000 3.000000 0.000000
0.660302 2.785301 0.000000
0.660045 2.212404 0.000000
0.825570 2.361866 0.000000
0.825957 2.628272 0.000000
0.594871 2.497465 0.000000
0.847252 2.832715 0.000000
0.847123 2.164854 0.000000
1.255000 1.805000 0.000000
1.556014 2.528684 0.000000
1.187778 2.667801 0.000000
1.187083 2.332917 0.000000
1.225000 2.500000 0.000000
1.340769 2.803850 0.000000
1.339859 2.197089 0.000000
1.387500 2.413333 0.000000
1.391667 2.590972 0.000000
1.548715 2.715781 0.000000
1.155709 2.844330 0.000000
1.155388 2.156001 0.000000
1.171305 3.165198 0.000000
1.384851 3.278430 0.000000
CELLS 42 168 
3 4 13 12
3 14 11 12
3 12  3  4
3 5 13  4
3 14 13 10
3 12 13 14
3 15  5  1
3 2 16 11
3 15 13  5
3 10 13 15
3 12 16  3
3 12 11 16
3 17  7  6
3 6  0 17
3 4 19  5
3 20  4  3
3 21 19  4
3 20 21  4
3 20 24 21
3 25 19 21
3 23  6  7
3 8 22  9
3 25 22 19
3 23 24 20
3 25 24 18
3 21 24 25
3 9 22 26
3 25 18 26
3 26 22 25
3 5 27  1
3 27  8  1
3 27  5 19
3 28  3  0
3 6 28  0
3 3 28 20
3 27 22  8
3 19 22 27
3 23 28  6
3 23 20 28
3 1  8 29
3 30  8  9
3 29  8 30
CELL_TYPES 42
5 5 5 5 5 5 5 5 5 5 5 5 5 5 5 5 5 5 5 5 5 5 5 5 5 5 5 5 5 5 5 5 5 5 5 5 5 5 5 5 5 5 
POINT_DATA 31
VECTORS displacement_ITER1 FLOAT
 -4.051679e-02  4.659614e-06  0 
 -1.687250e-02  2.336736e-02  0 
 -3.190302e-02  2.716111e-02  0 
 -2.817058e-02  2.337447e-02  0 
 -2.442755e-02  2.337686e-02  0 
 -2.066763e-02  2.337412e-02  0 
 -4.054535e-02  -1.443141e-02  0 
 -4.056747e-02  -2.887591e-02  0 
 -1.685960e-02  6.635498e-03  0 
 -1.685703e-02  -1.008167e-02  0 
 -2.012862e-02  2.851183e-02  0 
 -2.874530e-02  2.849631e-02  0 
 -2.649806e-02  2.600378e-02  0 
 -2.249866e-02  2.600312e-02  0 
 -2.446088e-02  2.947982e-02  0 
 -1.941565e-02  2.569156e-02  0 
 -2.944976e-02  2.569587e-02  0 
 -5.180305e-02  -1.474287e-02  0 
 -3.519950e-02  -2.526649e-02  0 
 -2.302632e-02  1.105690e-02  0 
 -3.092105e-02  4.077167e-03  0 
 -2.835033e-02  5.989940e-03  0 
 -2.025385e-02  4.898682e-05  0 
 -4.112045e-02  -1.533471e-02  0 
 -3.579613e-02  -9.902016e-03  0 
 -2.755408e-02  -5.756291e-03  0 
 -2.360236e-02  -1.714346e-02  0 
 -1.938645e-02  1.313535e-02  0 
 -3.882968e-02  -2.718329e-03  0 
 -5.817572e-03  1.189376e-02  0 
 1.752573e-03  -2.384839e-03  0 
VECTORS displacement_ITER2 FLOAT
 3.602091e-02  -4.612173e-02  0 
 1.531316e-02  -1.300903e-02  0 
 -3.541466e-03  -8.256651e-03  0 
 1.148551e-03  -1.298395e-02  0 
 5.839302e-03  -1.297254e-02  0 
 1.055278e-02  -1.298689e-02  0 
 3.600458e-02  -1.146907e-02  0 
 3.599766e-02  2.318742e-02  0 
 1.533370e-02  -2.917176e-02  0 
 1.534056e-02  -4.530518e-02  0 
 1.122405e-02  -6.554565e-03  0 
 4.376243e-04  -6.572702e-03  0 
 3.249095e-03  -9.690845e-03  0 
 8.255369e-03  -9.691588e-03  0 
 5.800404e-03  -5.342592e-03  0 
 1.212010e-02  -1.008838e-02  0 
 -4.546722e-04  -1.008653e-02  0 
 6.304740e-02  -1.078636e-02  0 
 -7.186734e-06  -5.131578e-02  0 
 7.629880e-03  -2.231282e-02  0 
 -2.017217e-03  -2.019397e-02  0 
 3.150337e-03  -2.326980e-02  0 
 1.131745e-02  -3.357260e-02  0 
 3.516343e-03  -9.779290e-03  0 
 -1.422169e-03  -3.205867e-02  0 
 5.286236e-03  -3.434392e-02  0 
 9.825692e-03  -4.709540e-02  0 
 1.190883e-02  -2.195249e-02  0 
 6.797169e-03  -1.998140e-02  0 
 2.599472e-02  -2.409903e-02  0 
 3.330241e-02  -3.788383e-02  0 
VECTORS displacement_ITER3 FLOAT
 -1.095249e-02  1.226388e-02  0 
 2.425069e-03  3.007985e-03  0 
 1.995432e-02  -1.310564e-03  0 
 1.548666e-02  3.124576e-03  0 
 1.108629e-02  3.092911e-03  0 
 6.716422e-03  3.059253e-03  0 
 -1.095791e-02  -1.050262e-02  0 
 -1.096916e-02  -3.325250e-02  0 
 2.456352e-03  -9.171637e-04  0 
 2.468289e-03  -4.788795e-03  0 
 6.102094e-03  -2.839808e-03  0 
 1.616603e-02  -2.896879e-03  0 
 1.351097e-02  4.058785e-05  0 
 8.835644e-03  4.163238e-05  0 
 1.113145e-02  -4.009371e-03  0 
 5.279978e-03  4.146533e-04  0 
 1.700728e-02  4.214122e-04  0 
 -2.870889e-02  -1.096297e-02  0 
 -3.412360e-05  -1.578417e-02  0 
 6.967789e-03  3.976392e-04  0 
 1.066246e-02  -3.770699e-03  0 
 7.821553e-03  -2.205143e-03  0 
 4.900078e-03  -2.568122e-03  0 
 3.751257e-03  -1.752755e-02  0 
 4.065119e-03  -1.018249e-02  0 
 4.905709e-03  -6.017064e-03  0 
 3.568061e-03  -9.497449e-03  0 
 4.757722e-03  9.018345e-04  0 
 4.619196e-03  -5.460604e-03  0 
 5.020151e-03  2.960150e-04  0 
 6.773765e-03  -3.017733e-03  0 
VECTORS displacement_ITER4 FLOAT
 -1.114757e-02  4.968609e-03  0 
 -8.349199e-04  -4.277636e-03  0 
 -4.660449e-03  -3.238679e-03  0 
 -3.796171e-03  -4.122895e-03  0 
 -2.888785e-03  -4.152417e-03  0 
 -1.929985e-03  -4.201904e-03  0 
 -1.114786e-02  -1.472336e-04  0 
 -1.114912e-02  -5.250593e-03  0 
 -7.850684e-04  -1.516673e-02  0 
 -7.625057e-04  -2.598875e-02  0 
 -1.787167e-03  -2.841341e-03  0 
 -3.924618e-03  -2.910214e-03  0 
 -3.397908e-03  -3.497712e-03  0 
 -2.408610e-03  -3.499671e-03  0 
 -2.893242e-03  -2.635069e-03  0 
 -1.594411e-03  -3.575162e-03  0 
 -4.093407e-03  -3.573074e-03  0 
 -1.513457e-02  -2.456910e-04  0 
 -1.008116e-02  -2.460045e-02  0 
 -4.149561e-03  -9.298855e-03  0 
 -6.703785e-03  -7.385607e-03  0 
 -5.355203e-03  -9.456650e-03  0 
 -3.559393e-03  -1.607380e-02  0 
 -7.092178e-03  -7.558098e-03  0 
 -8.688354e-03  -1.528063e-02  0 
 -5.911324e-03  -1.546235e-02  0 
 -4.536036e-03  -2.229974e-02  0 
 -2.655698e-03  -9.340446e-03  0 
 -6.930647e-03  -3.575034e-03  0 
 6.374593e-03  -1.177258e-02  0 
 1.128142e-02  -2.102981e-02  0 
VECTORS displacement_ITER5 FLOAT
 5.394165e-03  -4.819294e-04  0 
 3.450608e-03  -1.861074e-03  0 
 -1.158259e-02  1.990711e-03  0 
 -7.889944e-03  -1.706157e-03  0 
 -4.192570e-03  -1.716890e-03  0 
 -4.476347e-04  -1.766730e-03  0 
 5.397002e-03  1.326507e-02  0 
 5.404078e-03  2.702155e-02  0 
 3.509558e-03  -1.392260e-02  0 
 3.537751e-03  -2.589563e-02  0 
 8.923146e-05  3.383715e-03  0 
 -8.445773e-03  3.330594e-03  0 
 -6.238880e-03  8.795288e-04  0 
 -2.282356e-03  8.770741e-04  0 
 -4.222997e-03  4.318932e-03  0 
 8.102855e-04  5.653525e-04  0 
 -9.150478e-03  5.626409e-04  0 
 1.612272e-02  1.354779e-02  0 
 -8.292901e-03  -1.793150e-02  0 
 -3.765900e-03  -6.687710e-03  0 
 -9.425295e-03  -1.752482e-03  0 
 -5.999481e-03  -5.429465e-03  0 
 -1.829516e-03  -1.392950e-02  0 
 -4.211610e-03  8.923871e-03  0 
 -8.399569e-03  -8.218653e-03  0 
 -5.297228e-03  -1.115735e-02  0 
 -2.809097e-03  -1.848781e-02  0 
 -4.167603e-04  -7.127594e-03  0 
 -3.853026e-03  4.088453e-03  0 
 1.143503e-02  -1.016655e-02  0 
 1.686251e-02  -2.041282e-02  0 
VECTORS displacement_ITER6 FLOAT
 -1.059555e-02  1.760393e-02  0 
 3.687686e-04  1.476567e-03  0 
 1.919415e-02  -3.126483e-03  0 
 1.441871e-02  1.641946e-03  0 
 9.676875e-03  1.620940e-03  0 
 4.961306e-03  1.578064e-03  0 
 -1.059302e-02  -6.485263e-03  0 
 -1.059405e-02  -3.055962e-02  0 
 4.203934e-04  3.785443e-03  0 
 4.427353e-04  6.201963e-03  0 
 4.296972e-03  -4.778715e-03  0 
 1.514470e-02  -4.824015e-03  0 
 1.229293e-02  -1.672483e-03  0 
 7.246571e-03  -1.671669e-03  0 
 9.723803e-03  -6.038905e-03  0 
 3.411313e-03  -1.269592e-03  0 
 1.604506e-02  -1.264819e-03  0 
 -2.938196e-02  -6.965444e-03  0 
 -1.422784e-04  3.356750e-04  0 
 5.223779e-03  3.249295e-03  0 
 1.108636e-02  -1.040280e-03  0 
 6.884966e-03  1.337869e-03  0 
 2.226129e-03  4.894795e-03  0 
 6.129433e-03  -1.178397e-02  0 
 4.778116e-03  -1.528841e-03  0 
 3.017028e-03  2.349019e-03  0 
 8.324928e-05  3.626088e-03  0 
 2.586025e-03  3.389983e-03  0 
 6.339770e-03  -1.604692e-03  0 
 -1.158091e-03  3.020349e-03  0 
 -2.256269e-03  5.068607e-03  0 
VECTORS displacement_ITER7 FLOAT
 1.377103e-02  -1.105990e-02  0 
 8.126763e-03  -2.338865e-03  0 
 -1.554816e-02  3.692152e-03  0 
 -9.664250e-03  -2.187179e-03  0 
 -3.803785e-03  -2.178043e-03  0 
 2.088187e-03  -2.221854e-03  0 
 1.377143e-02  1.020630e-02  0 
 1.378134e-02  3.147958e-02  0 
 8.185964e-03  -1.020602e-02  0 
 8.212332e-03  -1.795240e-02  0 
 2.924110e-03  5.840536e-03  0 
 -1.055019e-02  5.816378e-03  0 
 -7.040391e-03  1.920552e-03  0 
 -7.906866e-04  1.914627e-03  0 
 -3.857705e-03  7.349156e-03  0 
 4.050499e-03  1.416880e-03  0 
 -1.167191e-02  1.417151e-03  0 
 3.036148e-02  1.063642e-02  0 
 -7.572365e-03  -1.623628e-02  0 
 -1.403328e-03  -5.776479e-03  0 
 -9.895662e-03  -2.892295e-03  0 
 -5.590513e-03  -5.635536e-03  0 
 1.713064e-03  -1.072526e-02  0 
 -3.640690e-03  9.499523e-03  0 
 -8.228790e-03  -7.843309e-03  0 
 -4.491983e-03  -1.038232e-02  0 
 -1.792867e-03  -1.662372e-02  0 
 3.413774e-03  -5.844769e-03  0 
 -2.838446e-03  1.599956e-03  0 
 1.332655e-02  -7.773515e-03  0 
 1.683159e-02  -1.441000e-02  0 
VECTORS displacement_ITER8 FLOAT
 -4.831678e-03  1.501231e-02  0 
 -5.991088e-04  2.682957e-03  0 
 1.124304e-02  -1.410460e-04  0 
 8.220720e-03  2.876160e-03  0 
 5.212883e-03  2.858729e-03  0 
 2.234026e-03  2.808873e-03  0 
 -4.830978e-03  -3.659181e-03  0 
 -4.828080e-03  -2.232372e-02  0 
 -5.422886e-04  3.331028e-03  0 
 -5.170814e-04  4.106580e-03  0 
 1.814542e-03  -1.178261e-03  0 
 8.677269e-03  -1.214688e-03  0 
 6.870353e-03  7.778765e-04  0 
 3.671691e-03  7.746092e-04  0 
 5.240430e-03  -1.985249e-03  0 
 1.259797e-03  1.028563e-03  0 
 9.246999e-03  1.040697e-03  0 
 -1.939798e-02  -4.031397e-03  0 
 -2.078143e-03  2.834531e-03  0 
 1.951191e-03  3.760187e-03  0 
 6.511301e-03  4.937166e-04  0 
 3.036176e-03  2.513685e-03  0 
 -2.066744e-04  4.667503e-03  0 
 4.953079e-03  -6.101779e-03  0 
 1.592549e-03  1.118490e-03  0 
 1.386092e-04  3.479238e-03  0 
 -1.914582e-03  4.346858e-03  0 
 3.972398e-04  3.825307e-03  0 
 5.134458e-03  9.489192e-04  0 
 -1.032650e-03  3.084041e-03  0 
 -1.391377e-03  3.726594e-03  0 
VECTORS displacement_ITER9 FLOAT
 1.243085e-02  -2.910498e-03  0 
 2.657880e-04  -9.541742e-04  0 
 -4.273181e-03  3.380313e-04  0 
 -3.201854e-03  -7.399539e-04  0 
 -2.136308e-03  -7.523257e-04  0 
 -1.026405e-03  -8.129728e-04  0 
 1.242922e-02  5.451131e-03  0 
 1.243732e-02  1.381420e-02  0 
 3.311557e-04  -7.181483e-03  0 
 3.619053e-04  -1.327761e-02  0 
 -8.652396e-04  7.697352e-04  0 
 -3.368964e-03  7.291174e-04  0 
 -2.730356e-03  1.265313e-05  0 
 -1.581883e-03  6.631850e-06  0 
 -2.147343e-03  1.020196e-03  0 
 -6.416743e-04  -8.404014e-05  0 
 -3.573819e-03  -7.039290e-05  0 
 1.894798e-02  5.620248e-03  0 
 -4.970987e-03  -3.119124e-03  0 
 -3.107702e-03  -2.498825e-03  0 
 -3.582249e-03  -6.261255e-04  0 
 -3.467663e-03  -1.520408e-03  0 
 -3.044498e-03  -5.504977e-03  0 
 1.968601e-03  6.849383e-03  0 
 -4.137657e-03  -7.116339e-04  0 
 -3.940618e-03  -2.664578e-03  0 
 -3.383931e-03  -5.105055e-03  0 
 -1.872752e-03  -2.949707e-03  0 
 2.707638e-03  2.218351e-03  0 
 4.381400e-03  -5.269174e-03  0 
 7.136364e-03  -1.049986e-02  0 
VECTORS displacement_ITER10 FLOAT
 -5.363507e-03  5.732822e-03  0 
 -3.006565e-03  2.345293e-03  0 
 2.637699e-03  1.110699e-03  0 
 1.141368e-03  2.589896e-03  0 
 -3.317889e-04  2.560909e-03  0 
 -1.758081e-03  2.494555e-03  0 
 -5.368547e-03  -3.641778e-03  0 
 -5.368038e-03  -1.300992e-02  0 
 -2.946425e-03  2.879931e-05  0 
 -2.918173e-03  -2.152057e-03  0 
 -1.958464e-03  6.317964e-04  0 
 1.361161e-03  5.830675e-04  0 
 4.726187e-04  1.559519e-03  0 
 -1.081142e-03  1.551081e-03  0 
 -3.218748e-04  2.206853e-04  0 
 -2.214766e-03  1.672511e-03  0 
 1.643142e-03  1.697374e-03  0 
 -1.268522e-02  -3.832917e-03  0 
 -4.699690e-03  2.877556e-03  0 
 -2.547065e-03  2.087464e-03  0 
 1.215402e-04  4.279269e-04  0 
 -1.831186e-03  1.688829e-03  0 
 -3.936705e-03  1.534677e-03  0 
 -1.274272e-03  -3.697122e-03  0 
 -2.737381e-03  1.219474e-03  0 
 -3.530843e-03  2.244751e-03  0 
 -4.455946e-03  2.552773e-03  0 
 -3.176873e-03  2.045953e-03  0 
 -8.953043e-04  -2.761106e-04  0 
 -1.483515e-03  7.126361e-04  0 
 -5.065542e-04  -1.172374e-03  0 
VECTORS displacement_ITER11 FLOAT
 -2.554792e-03  1.560791e-03  0 
 -1.568781e-03  2.719682e-03  0 
 -3.233861e-03  3.319607e-03  0 
 -2.906280e-03  2.973555e-03  0 
 -2.554178e-03  2.942873e-03  0 
 -2.149948e-03  2.872547e-03  0 
 -2.561438e-03  1.400119e-03  0 
 -2.561153e-03  1.246153e-03  0 
 -1.510965e-03  -1.005791e-03  0 
 -1.482562e-03  -4.597043e-03  0 
 -2.093210e-03  3.496920e-03  0 
 -2.962659e-03  3.447800e-03  0 
 -2.759257e-03  3.215914e-03  0 
 -2.365443e-03  3.204255e-03  0 
 -2.562594e-03  3.563137e-03  0 
 -2.001573e-03  3.167959e-03  0 
 -3.027267e-03  3.198239e-03  0 
 -2.690780e-03  1.392885e-03  0 
 -5.372387e-03  1.623557e-03  0 
 -3.461752e-03  1.751007e-03  0 
 -3.543794e-03  1.731177e-03  0 
 -3.702282e-03  1.848727e-03  0 
 -3.732246e-03  1.918116e-04  0 
 -3.683998e-03  1.710106e-03  0 
 -4.587478e-03  1.607222e-03  0 
 -4.394776e-03  1.475472e-03  0 
 -4.299624e-03  6.285784e-04  0 
 -2.846161e-03  1.620259e-03  0 
 -3.257029e-03  1.648069e-03  0 
 8.825362e-04  1.228177e-04  0 
 2.496545e-03  -2.966870e-03  0 
VECTORS displacement_ITER12 FLOAT
 1.403854e-03  1.781574e-03  0 
 -7.879437e-04  5.086370e-04  0 
 4.131099e-03  -5.358432e-04  0 
 2.808529e-03  7.677899e-04  0 
 1.520777e-03  7.304132e-04  0 
 2.853040e-04  6.589364e-04  0 
 1.396662e-03  1.126992e-03  0 
 1.395089e-03  4.779965e-04  0 
 -7.355370e-04  -3.718734e-04  0 
 -7.082067e-04  -1.124043e-03  0 
 1.077960e-04  -9.502447e-04  0 
 3.000721e-03  -9.992584e-04  0 
 2.220250e-03  -1.400576e-04  0 
 8.675990e-04  -1.523904e-04  0 
 1.527282e-03  -1.309461e-03  0 
 -1.115048e-04  -5.278301e-05  0 
 3.248818e-03  -1.522345e-05  0 
 8.809166e-04  1.109720e-03  0 
 -1.294997e-03  4.817707e-03  0 
 -3.690244e-04  1.404871e-03  0 
 1.720762e-03  1.288501e-03  0 
 4.755294e-04  1.741102e-03  0 
 -1.529529e-03  1.541197e-03  0 
 1.597535e-03  1.492208e-03  0 
 2.075999e-04  2.868889e-03  0 
 -8.364957e-04  2.963724e-03  0 
 -1.672267e-03  3.748042e-03  0 
 -9.466990e-04  1.037213e-03  0 
 2.120800e-03  9.687400e-04  0 
 -2.208908e-04  -1.355121e-04  0 
 1.046675e-04  -7.982154e-04  0 
VECTORS displacement_ITER13 FLOAT
 -1.962459e-03  -5.600695e-03  0 
 3.123195e-04  -1.075208e-03  0 
 -1.463402e-03  -4.681087e-04  0 
 -1.087001e-03  -8.586269e-04  0 
 -6.856047e-04  -8.852899e-04  0 
 -2.445715e-04  -9.428362e-04  0 
 -1.973601e-03  -1.945700e-03  0 
 -1.978479e-03  1.713650e-03  0 
 3.508935e-04  8.699777e-04  0 
 3.728170e-04  2.930854e-03  0 
 -1.896210e-04  -2.934973e-04  0 
 -1.150758e-03  -3.219063e-04  0 
 -9.167076e-04  -5.842760e-04  0 
 -4.753295e-04  -5.980176e-04  0 
 -6.960438e-04  -2.011828e-04  0 
 -9.438665e-05  -6.452706e-04  0 
 -1.225468e-03  -6.054724e-04  0 
 8.719213e-04  -1.879701e-03  0 
 -3.413845e-03  9.669439e-04  0 
 -8.041386e-04  2.820404e-04  0 
 -1.879448e-03  -1.007493e-03  0 
 -1.673853e-03  -4.094946e-04  0 
 -7.584297e-04  1.532723e-03  0 
 -3.544092e-03  -1.337162e-03  0 
 -2.603311e-03  -3.801038e-04  0 
 -2.402951e-03  4.304308e-04  0 
 -2.764730e-03  1.173538e-03  0 
 -2.290264e-04  2.745999e-04  0 
 -2.891009e-03  -2.555504e-03  0 
 -9.969467e-04  2.255594e-04  0 
 -1.949612e-03  1.970919e-03  0 
VECTORS displacement_ITER14 FLOAT
 -1.951548e-03  -8.268507e-04  0 
 5.976676e-04  1.502456e-03  0 
 3.302808e-04  1.717535e-03  0 
 3.420229e-04  1.695180e-03  0 
 3.750813e-04  1.671420e-03  0 
 4.408177e-04  1.621216e-03  0 
 -1.963567e-03  2.319689e-04  0 
 -1.969526e-03  1.292887e-03  0 
 6.276905e-04  4.051160e-03  0 
 6.465222e-04  6.703098e-03  0 
 4.414925e-04  1.751987e-03  0 
 3.337601e-04  1.732008e-03  0 
 3.485551e-04  1.712843e-03  0 
 3.946079e-04  1.699613e-03  0 
 3.681616e-04  1.752690e-03  0 
 4.636610e-04  1.682702e-03  0 
 3.283078e-04  1.722690e-03  0 
 -1.144234e-03  2.458185e-04  0 
 -2.068383e-03  3.405038e-03  0 
 2.108940e-04  3.001146e-03  0 
 -3.503805e-04  1.544222e-03  0 
 -4.452994e-04  2.252177e-03  0 
 1.646715e-04  4.473382e-03  0 
 -2.014136e-03  4.780661e-04  0 
 -1.243549e-03  2.153894e-03  0 
 -1.162954e-03  3.111167e-03  0 
 -1.631279e-03  3.969074e-03  0 
 4.770070e-04  3.013752e-03  0 
 -1.499061e-03  2.350706e-04  0 
 -1.113554e-03  3.222471e-03  0 
 -2.334831e-03  5.474104e-03  0 
VECTORS displacement_ITER15 FLOAT
 8.020492e-04  1.341655e-03  0 
 3.883781e-04  -9.262716e-04  0 
 -1.625636e-04  -6.587066e-04  0 
 -6.531521e-05  -7.602475e-04  0 
 4.586727e-05  -7.821932e-04  0 
 1.840437e-04  -8.252685e-04  0 
 7.895455e-04  9.513660e-04  0 
 7.841550e-04  5.574853e-04  0 
 4.087993e-04  8.248771e-04  0 
 4.242089e-04  2.659789e-03  0 
 1.942077e-04  -6.047495e-04  0 
 -8.680503e-05  -6.154540e-04  0 
 -2.322252e-05  -6.881857e-04  0 
 1.044073e-04  -7.016951e-04  0 
 3.794480e-05  -5.788445e-04  0 
 2.284304e-04  -7.260485e-04  0 
 -1.079829e-04  -6.850240e-04  0 
 4.759513e-04  9.376707e-04  0 
 -1.094360e-03  5.463089e-04  0 
 6.540917e-05  2.274364e-04  0 
 -1.414622e-04  -1.719646e-04  0 
 -3.129821e-04  1.918762e-05  0 
 1.791304e-04  1.115498e-03  0 
 4.854139e-04  7.491057e-04  0 
 -6.204446e-04  3.364547e-04  0 
 -6.402287e-04  4.810840e-04  0 
 -8.558288e-04  7.813624e-04  0 
 2.981343e-04  1.156140e-04  0 
 6.254358e-04  4.832282e-04  0 
 -7.967652e-04  2.540523e-04  0 
 -1.647568e-03  1.809648e-03  0 
VECTORS displacement_ITER16 FLOAT
 4.875623e-04  3.127020e-03  0 
 -3.549775e-04  3.908677e-04  0 
 2.169638e-04  3.600388e-04  0 
 4.037910e-05  5.326702e-04  0 
 -1.228930e-04  5.120266e-04  0 
 -2.633254e-04  4.749265e-04  0 
 4.727526e-04  1.229154e-03  0 
 4.656904e-04  -6.751700e-04  0 
 -3.425076e-04  2.819037e-04  0 
 -3.297741e-04  2.374605e-04  0 
 -2.916536e-04  3.122341e-04  0 
 6.036745e-05  3.050272e-04  0 
 -3.978381e-05  4.137300e-04  0 
 -2.056214e-04  4.009352e-04  0 
 -1.277294e-04  2.685328e-04  0 
 -3.117713e-04  4.005967e-04  0 
 9.089778e-05  4.405218e-04  0 
 -1.018322e-03  1.184058e-03  0 
 -8.139109e-04  4.886391e-04  0 
 -3.890520e-04  6.426406e-04  0 
 -3.218540e-05  6.559678e-04  0 
 -3.644809e-04  7.190632e-04  0 
 -4.399540e-04  5.354314e-04  0 
 6.530136e-04  1.038481e-03  0 
 -5.369161e-04  8.237194e-04  0 
 -5.501174e-04  7.077089e-04  0 
 -5.790737e-04  4.966717e-04  0 
 -3.882599e-04  5.060496e-04  0 
 7.514684e-04  1.368596e-03  0 
 -3.100077e-04  3.024449e-04  0 
 -3.080401e-04  2.531219e-04  0 
VECTORS displacement_ITER17 FLOAT
 3.889901e-04  8.105573e-04  0 
 -5.712210e-04  7.900912e-04  0 
 7.918773e-04  5.438082e-04  0 
 4.210763e-04  9.091656e-04  0 
 6.688101e-05  8.901323e-04  0 
 -2.685214e-04  8.586141e-04  0 
 3.715379e-04  -1.161868e-04  0 
 3.624855e-04  -1.050654e-03  0 
 -5.649444e-04  -1.951576e-04  0 
 -5.539041e-04  -1.132621e-03  0 
 -3.238349e-04  4.257146e-04  0 
 4.711115e-04  4.209401e-04  0 
 2.561580e-04  6.573345e-04  0 
 -1.143478e-04  6.451168e-04  0 
 6.430766e-05  3.339724e-04  0 
 -3.822281e-04  6.615221e-04  0 
 5.373727e-04  7.003739e-04  0 
 -3.629174e-04  -1.438506e-04  0 
 -6.960639e-04  1.483436e-04  0 
 -4.188959e-04  5.675837e-04  0 
 9.025868e-05  4.921591e-04  0 
 -2.404246e-04  6.299197e-04  0 
 -6.260329e-04  4.436083e-05  0 
 5.068884e-05  1.057972e-04  0 
 -4.623864e-04  4.770802e-04  0 
 -4.419013e-04  4.551206e-04  0 
 -4.389577e-04  1.229569e-04  0 
 -5.618222e-04  4.717630e-04  0 
 3.238313e-04  3.329664e-04  0 
 5.429490e-05  1.060106e-04  0 
 4.625061e-04  -7.055482e-04  0 
VECTORS displacement_ITER18 FLOAT
 -7.195626e-04  -1.512132e-03  0 
 -5.776882e-04  4.335093e-04  0 
 2.213355e-04  3.148529e-04  0 
 -3.430481e-06  5.342119e-04  0 
 -2.103520e-04  5.168271e-04  0 
 -4.020390e-04  4.899072e-04  0 
 -7.388953e-04  -1.073031e-03  0 
 -7.495972e-04  -6.419333e-04  0 
 -5.769635e-04  -6.016926e-04  0 
 -5.674143e-04  -1.600804e-03  0 
 -4.375692e-04  2.461961e-04  0 
 2.506452e-05  2.457061e-04  0 
 -1.018571e-04  3.851979e-04  0 
 -3.166930e-04  3.727348e-04  0 
 -2.143996e-04  1.955483e-04  0 
 -4.697752e-04  3.760072e-04  0 
 6.298325e-05  4.154041e-04  0 
 -4.085355e-04  -1.074681e-03  0 
 -9.576127e-04  -6.540867e-04  0 
 -5.691118e-04  7.394718e-05  0 
 -4.745232e-04  -6.523127e-05  0 
 -5.266429e-04  3.964286e-05  0 
 -7.003667e-04  -4.859950e-04  0 
 -1.235541e-03  -8.213047e-04  0 
 -8.430372e-04  -3.413795e-04  0 
 -6.594771e-04  -2.365307e-04  0 
 -5.909694e-04  -5.887204e-04  0 
 -6.231494e-04  3.351045e-05  0 
 -8.999394e-04  -8.091670e-04  0 
 8.062940e-05  -2.807754e-04  0 
 5.174662e-04  -1.144388e-03  0 
VECTORS displacement_ITER19 FLOAT
 -1.254336e-03  -1.486373e-03  0 
 -1.924864e-05  -6.349254e-04  0 
 5.408104e-05  -5.803752e-04  0 
 1.627891e-05  -5.456017e-04  0 
 -3.458123e-06  -5.631813e-04  0 
 -1.068927e-05  -5.874163e-04  0 
 -1.274572e-03  -5.671625e-04  0 
 -1.286425e-03  3.439408e-04  0 
 -2.432995e-05  -1.317956e-03  0 
 -1.649296e-05  -1.973279e-03  0 
 -2.171784e-05  -5.867392e-04  0 
 1.704304e-05  -5.817124e-04  0 
 1.779313e-06  -5.654551e-04  0 
 -1.461446e-05  -5.792862e-04  0 
 -1.001716e-05  -5.850568e-04  0 
 -1.967378e-05  -5.939972e-04  0 
 1.922247e-05  -5.514448e-04  0 
 -5.704192e-04  -5.593370e-04  0 
 -3.668676e-04  -1.396320e-03  0 
 -1.397942e-04  -8.350905e-04  0 
 -3.901053e-04  -6.107768e-04  0 
 -1.689974e-04  -7.656819e-04  0 
 -1.326060e-04  -1.258215e-03  0 
 -1.153338e-03  -8.605808e-04  0 
 -3.991977e-04  -1.035799e-03  0 
 -1.680236e-04  -1.043070e-03  0 
 -4.675587e-05  -1.361297e-03  0 
 -9.825476e-05  -9.005689e-04  0 
 -9.784169e-04  -9.981827e-04  0 
 4.043541e-04  -1.104158e-03  0 
 6.851574e-04  -1.673655e-03  0 
VECTORS displacement_ITER20 FLOAT
 -1.337753e-03  -1.210626e-03  0 
 1.954533e-04  -7.324931e-04  0 
 -7.634161e-04  -4.264343e-04  0 
 -5.327850e-04  -6.566941e-04  0 
 -2.897242e-04  -6.710788e-04  0 
 -3.902006e-05  -6.911656e-04  0 
 -1.359455e-03  -4.098159e-04  0 
 -1.372346e-03  3.817301e-04  0 
 1.856856e-04  -1.067302e-03  0 
 1.917865e-04  -1.378954e-03  0 
 -1.476212e-05  -3.453124e-04  0 
 -5.722384e-04  -3.322498e-04  0 
 -4.287101e-04  -4.919852e-04  0 
 -1.675392e-04  -5.064643e-04  0 
 -2.992628e-04  -2.714939e-04  0 
 3.506866e-05  -5.446527e-04  0 
 -6.208276e-04  -5.009283e-04  0 
 -7.484335e-04  -4.051938e-04  0 
 -3.195458e-04  -1.476301e-03  0 
 -1.358887e-04  -8.621826e-04  0 
 -7.033105e-04  -6.356148e-04  0 
 -3.369545e-04  -8.185673e-04  0 
 5.439220e-05  -1.146865e-03  0 
 -1.273915e-03  -6.827072e-04  0 
 -5.287586e-04  -1.046340e-03  0 
 -1.853180e-04  -1.105937e-03  0 
 3.237654e-05  -1.413235e-03  0 
 5.690656e-05  -9.037235e-04  0 
 -1.177922e-03  -8.195922e-04  0 
 3.862694e-04  -9.603169e-04  0 
 5.103571e-04  -1.235578e-03  0 
VECTORS displacement_ITER21 FLOAT
 -7.955164e-04  -8.491558e-04  0 
 4.890473e-04  -5.160337e-04  0 
 -7.976249e-04  -1.330057e-04  0 
 -4.751101e-04  -4.518149e-04  0 
 -1.460297e-04  -4.622727e-04  0 
 1.853361e-04  -4.784794e-04  0 
 -8.191556e-04  -2.878532e-04  0 
 -8.335132e-04  2.632978e-04  0 
 4.756374e-04  -6.071722e-04  0 
 4.800568e-04  -6.775199e-04  0 
 2.201937e-04  -2.707142e-05  0 
 -5.277547e-04  -6.419442e-06  0 
 -3.312479e-04  -2.252583e-04  0 
 1.857343e-05  -2.399471e-04  0 
 -1.565456e-04  7.215180e-05  0 
 2.841883e-04  -2.860679e-04  0 
 -5.939242e-04  -2.422146e-04  0 
 -3.955532e-04  -2.893815e-04  0 
 2.855026e-05  -1.203234e-03  0 
 1.393149e-04  -5.839991e-04  0 
 -4.976910e-04  -4.183269e-04  0 
 -1.238239e-04  -5.591171e-04  0 
 4.097788e-04  -7.709931e-04  0 
 -8.958233e-04  -4.021288e-04  0 
 -2.786470e-04  -7.351721e-04  0 
 1.092955e-04  -8.223398e-04  0 
 3.743827e-04  -1.104038e-03  0 
 3.703583e-04  -6.160957e-04  0 
 -8.092344e-04  -5.281817e-04  0 
 5.162221e-04  -5.748979e-04  0 
 5.297846e-04  -6.433178e-04  0 
VECTORS displacement_ITER22 FLOAT
 -5.237706e-04  3.322489e-04  0 
 3.548969e-04  -2.807229e-04  0 
 -4.934598e-04  -7.947573e-06  0 
 -2.732079e-04  -2.214812e-04  0 
 -5.159266e-05  -2.291409e-04  0 
 1.682306e-04  -2.434613e-04  0 
 -5.498020e-04  2.231983e-04  0 
 -5.663285e-04  1.034900e-04  0 
 3.391381e-04  -7.123504e-04  0 
 3.422146e-04  -1.123461e-03  0 
 1.869509e-04  5.488978e-05  0 
 -3.098007e-04  8.142740e-05  0 
 -1.763664e-04  -6.836115e-05  0 
 5.639587e-05  -8.327746e-05  0 
 -6.111566e-05  1.279724e-04  0 
 2.290495e-04  -1.206384e-04  0 
 -3.567474e-04  -7.643885e-05  0 
 -6.496636e-04  2.065740e-04  0 
 4.428269e-04  -8.096857e-04  0 
 1.566011e-04  -4.427704e-04  0 
 -2.207693e-04  -3.048528e-05  0 
 6.696856e-05  -2.376173e-04  0 
 3.844391e-04  -8.192962e-04  0 
 -3.842889e-04  1.195382e-04  0 
 3.760675e-05  -2.521074e-04  0 
 3.743271e-04  -5.193921e-04  0 
 6.980985e-04  -8.662627e-04  0 
 2.893964e-04  -5.307830e-04  0 
 -3.311017e-04  8.047296e-05  0 
 6.047740e-04  -5.719018e-04  0 
 7.714587e-04  -9.312048e-04  0 
VECTORS displacement_ITER23 FLOAT
 -7.212644e-04  3.870564e-04  0 
 -1.413717e-05  -1.867576e-04  0 
 -3.855203e-04  -3.232247e-05  0 
 -2.795552e-04  -1.298852e-04  0 
 -1.760266e-04  -1.349321e-04  0 
 -7.756800e-05  -1.479254e-04  0 
 -7.499442e-04  -3.598632e-05  0 
 -7.690767e-04  -4.702593e-04  0 
 -3.079201e-05  -7.852148e-04  0 
 -2.863071e-05  -1.361389e-03  0 
 -7.614621e-05  -1.513190e-05  0 
 -2.984464e-04  1.572382e-05  0 
 -2.346086e-04  -5.756662e-05  0 
 -1.298040e-04  -7.244873e-05  0 
 -1.842635e-04  2.833597e-05  0 
 -5.760740e-05  -9.973242e-05  0 
 -3.239922e-04  -5.562696e-05  0 
 -1.095043e-03  -6.095245e-05  0 
 3.863130e-04  -6.686783e-04  0 
 -5.981918e-05  -3.922447e-04  0 
 -2.608489e-04  3.792281e-05  0 
 -4.923673e-05  -1.296850e-04  0 
 1.169305e-04  -8.615348e-04  0 
 -5.233776e-04  4.901979e-06  0 
 -5.699038e-05  -1.023909e-04  0 
 2.732006e-04  -4.001790e-04  0 
 6.228308e-04  -7.584853e-04  0 
 -1.411764e-05  -5.073916e-04  0 
 -4.130437e-04  2.035619e-05  0 
 3.442676e-04  -5.921509e-04  0 
 5.846774e-04  -1.092215e-03  0 
VECTORS displacement_ITER24 FLOAT
 -6.940542e-04  -8.219976e-04  0 
 9.540934e-05  -5.282354e-05  0 
 -4.248590e-04  1.354456e-04  0 
 -2.750508e-04  -4.240425e-06  0 
 -1.315440e-04  -5.011286e-06  0 
 2.081619e-06  -1.452038e-05  0 
 -7.253276e-04  -9.777771e-04  0 
 -7.467889e-04  -1.145749e-03  0 
 7.787211e-05  -7.693669e-05  0 
 7.903426e-05  -7.708268e-05  0 
 8.148001e-06  1.631766e-04  0 
 -2.998000e-04  1.992938e-04  0 
 -2.108467e-04  9.812826e-05  0 
 -6.622483e-05  8.373790e-05  0 
 -1.397689e-04  2.189129e-04  0 
 3.240252e-05  5.337807e-05  0 
 -3.342443e-04  9.607316e-05  0 
 -8.622335e-04  -9.994879e-04  0 
 1.821129e-04  -6.873254e-04  0 
 7.482389e-05  -9.557169e-05  0 
 -2.991704e-04  -1.167933e-04  0 
 -8.669673e-05  -6.604263e-05  0 
 3.046955e-04  -2.883792e-04  0 
 -9.081681e-04  -6.080917e-04  0 
 -2.298456e-04  -2.019429e-04  0 
 2.008015e-04  -2.648946e-04  0 
 5.221660e-04  -5.071844e-04  0 
 1.587492e-04  -1.518264e-04  0 
 -6.663919e-04  -5.980542e-04  0 
 7.268158e-05  -6.442695e-05  0 
 5.127108e-05  -7.149755e-05  0 
VECTORS displacement_ITER25 FLOAT
 -6.057582e-04  -5.642556e-04  0 
 1.139207e-04  -1.977149e-04  0 
 -3.402686e-04  -2.760411e-05  0 
 -2.034497e-04  -1.520098e-04  0 
 -7.567241e-05  -1.504359e-04  0 
 3.955363e-05  -1.582479e-04  0 
 -6.394604e-04  -6.364219e-04  0 
 -6.632175e-04  -7.213040e-04  0 
 9.713484e-05  -5.303276e-05  0 
 9.794119e-05  1.185595e-04  0 
 4.303930e-05  -6.834010e-06  0 
 -2.257036e-04  3.189356e-05  0 
 -1.454357e-04  -5.956071e-05  0 
 -1.911308e-05  -7.343312e-05  0 
 -8.312144e-05  4.561278e-05  0 
 6.328111e-05  -1.019903e-04  0 
 -2.581943e-04  -6.055880e-05  0 
 -7.116880e-04  -6.580231e-04  0 
 2.296594e-04  -7.169708e-04  0 
 1.331789e-04  -1.414935e-04  0 
 -2.439474e-04  -1.054704e-04  0 
 -2.395603e-05  -9.852158e-05  0 
 3.689329e-04  -2.628610e-04  0 
 -7.556349e-04  -4.036465e-04  0 
 -1.548769e-04  -1.982744e-04  0 
 2.538418e-04  -2.768670e-04  0 
 5.524835e-04  -5.048899e-04  0 
 2.068909e-04  -2.121454e-04  0 
 -5.340172e-04  -4.502075e-04  0 
 -2.081052e-05  -9.448045e-05  0 
 -1.203059e-04  4.563602e-05  0 
VECTORS displacement_ITER26 FLOAT
 -5.348068e-04  1.758135e-04  0 
 -1.116286e-04  -4.222114e-04  0 
 -3.010128e-04  -3.195311e-04  0 
 -2.296659e-04  -3.766896e-04  0 
 -1.689917e-04  -3.738757e-04  0 
 -1.217582e-04  -3.811174e-04  0 
 -5.706143e-04  3.779813e-05  0 
 -5.962228e-04  -1.131134e-04  0 
 -1.265245e-04  -5.638737e-04  0 
 -1.256224e-04  -6.762327e-04  0 
 -1.272300e-04  -3.216471e-04  0 
 -2.418192e-04  -2.828965e-04  0 
 -2.011964e-04  -3.303308e-04  0 
 -1.468668e-04  -3.434356e-04  0 
 -1.749338e-04  -2.870898e-04  0 
 -1.200916e-04  -3.653423e-04  0 
 -2.623378e-04  -3.256086e-04  0 
 -6.948488e-04  1.367808e-05  0 
 1.160531e-04  -7.698805e-04  0 
 -8.179765e-05  -3.918568e-04  0 
 -3.060447e-04  -8.824605e-05  0 
 -1.249112e-04  -2.110191e-04  0 
 9.104651e-05  -6.456224e-04  0 
 -5.272973e-04  2.942816e-05  0 
 -2.042772e-04  -1.886874e-04  0 
 1.151179e-04  -4.041969e-04  0 
 3.925153e-04  -7.006660e-04  0 
 -4.692617e-05  -5.119442e-04  0 
 -3.578869e-04  -8.853846e-05  0 
 -5.610410e-05  -5.165774e-04  0 
 -2.655485e-05  -6.187382e-04  0 
VECTORS displacement_ITER27 FLOAT
 -2.547293e-04  -9.567984e-05  0 
 -1.970790e-04  -2.860267e-04  0 
 -2.676306e-04  -2.174745e-04  0 
 -2.226495e-04  -2.467560e-04  0 
 -1.909081e-04  -2.407286e-04  0 
 -1.755459e-04  -2.453797e-04  0 
 -2.928041e-04  -1.864903e-04  0 
 -3.199972e-04  -2.910971e-04  0 
 -2.109238e-04  -4.185429e-04  0 
 -2.102299e-04  -5.205636e-04  0 
 -1.848899e-04  -2.301705e-04  0 
 -2.303727e-04  -1.894981e-04  0 
 -2.060978e-04  -2.187380e-04  0 
 -1.841760e-04  -2.307670e-04  0 
 -1.956417e-04  -2.028574e-04  0 
 -1.844725e-04  -2.490284e-04  0 
 -2.465601e-04  -2.118988e-04  0 
 -3.810184e-04  -2.111476e-04  0 
 -1.924805e-04  -6.857017e-04  0 
 -1.809028e-04  -2.452714e-04  0 
 -3.468678e-04  -1.120581e-04  0 
 -2.464337e-04  -1.416892e-04  0 
 -5.795104e-05  -4.632282e-04  0 
 -5.356060e-04  -6.484952e-05  0 