# vtk DataFile Version 3.1
this is an vtk file created by FEMAC
ASCII
DATASET UNSTRUCTURED_GRID
POINTS 31 FLOAT
3.000000 0.000000 0.000000
3.000000 1.000000 0.000000
2.500000 0.000000 0.000000
2.750000 0.000000 0.000000
3.250000 0.000000 0.000000
3.500000 0.000000 0.000000
3.000000 0.250000 0.000000
3.000000 0.500000 0.000000
3.000000 0.750000 0.000000
3.250000 1.000000 0.000000
3.500000 1.000000 0.000000
2.462570 0.272476 0.000000
2.787596 0.660045 0.000000
2.828307 0.162952 0.000000
2.638134 0.825570 0.000000
2.502535 0.594871 0.000000
2.746177 0.372389 0.000000
2.660592 0.165804 0.000000
2.835146 0.847123 0.000000
3.462570 0.272476 0.000000
3.214699 0.660302 0.000000
3.638134 0.825570 0.000000
3.371728 0.825957 0.000000
3.502535 0.594871 0.000000
3.217467 0.400442 0.000000
3.167285 0.847252 0.000000
3.238340 0.153820 0.000000
3.218472 1.189265 0.000000
3.624223 1.213075 0.000000
3.378554 1.338380 0.000000
3.394250 1.148144 0.000000
CELLS 43 172 
3 12  7  8
3 13  3  0
3 6 13  0
3 15 12 14
3 12 16  7
3 16 15 11
3 12 15 16
3 16  6  7
3 13  6 16
3 13 17  3
3 8 18 12
3 18  8  1
3 17 16 11
3 13 16 17
3 14 12 18
3 17  2  3
3 2 17 11
3 7 20  8
3 10 22 21
3 24 20  7
3 23 24 19
3 23 20 24
3 9 22 10
3 6 24  7
3 23 22 20
3 21 22 23
3 8 25  1
3 25  9  1
3 25  8 20
3 25 22  9
3 20 22 25
3 4 26  0
3 26  6  0
3 5 26  4
3 24 26 19
3 26 24  6
3 5 19 26
3 1  9 27
3 29 30 28
3 30 29 27
3 30 10 28
3 30  9 10
3 27  9 30
CELL_TYPES 43
5 5 5 5 5 5 5 5 5 5 5 5 5 5 5 5 5 5 5 5 5 5 5 5 5 5 5 5 5 5 5 5 5 5 5 5 5 5 5 5 5 5 5 
POINT_DATA 31
VECTORS displacement_ITER1 FLOAT
 -1.344574e-01  -1.268072e-01  0 
 -8.969426e-02  -1.265698e-01  0 
 -1.343880e-01  -1.042578e-01  0 
 -1.344208e-01  -1.155210e-01  0 
 -1.622511e-01  -1.664598e-01  0 
 -1.876091e-01  -2.053105e-01  0 
 -1.231749e-01  -1.267559e-01  0 
 -1.119292e-01  -1.267097e-01  0 
 -1.007303e-01  -1.266486e-01  0 
 -8.973267e-02  -1.431677e-01  0 
 -8.975888e-02  -1.597631e-01  0 
 -1.221329e-01  -1.025652e-01  0 
 -1.047387e-01  -1.171660e-01  0 
 -1.270814e-01  -1.190314e-01  0 
 -9.733714e-02  -1.104684e-01  0 
 -1.076465e-01  -1.043745e-01  0 
 -1.176456e-01  -1.153189e-01  0 
 -1.269405e-01  -1.114752e-01  0 
 -9.639814e-02  -1.192936e-01  0 
 -1.370004e-01  -1.710154e-01  0 
 -1.089498e-01  -1.412160e-01  0 
 -1.141655e-01  -1.821855e-01  0 
 -1.037695e-01  -1.513549e-01  0 
 -1.206526e-01  -1.667614e-01  0 
 -1.216967e-01  -1.441957e-01  0 
 -9.879816e-02  -1.365757e-01  0 
 -1.385059e-01  -1.484378e-01  0 
 -7.718807e-02  -1.410630e-01  0 
 -7.561825e-02  -1.680000e-01  0 
 -6.730163e-02  -1.516881e-01  0 
 -7.992046e-02  -1.527308e-01  0 
VECTORS displacement_ITER2 FLOAT
 -8.257086e-02  -8.112484e-02  0 
 -3.960842e-02  -8.099878e-02  0 
 -8.253149e-02  -5.949619e-02  0 
 -8.255308e-02  -7.030408e-02  0 
 -9.608119e-02  -1.037153e-01  0 
 -1.096238e-01  -1.249575e-01  0 
 -7.175206e-02  -8.110370e-02  0 
 -6.093596e-02  -8.109730e-02  0 
 -5.013144e-02  -8.108637e-02  0 
 -3.968882e-02  -7.845833e-02  0 
 -3.973046e-02  -7.586801e-02  0 
 -7.077021e-02  -5.786943e-02  0 
 -5.402769e-02  -7.194004e-02  0 
 -7.550965e-02  -7.368218e-02  0 
 -4.688175e-02  -6.547356e-02  0 
 -5.684690e-02  -5.959858e-02  0 
 -6.645563e-02  -7.012804e-02  0 
 -7.538117e-02  -6.642800e-02  0 
 -4.597735e-02  -7.404055e-02  0 
 -8.045132e-02  -1.072013e-01  0 
 -5.591408e-02  -8.480693e-02  0 
 -6.590484e-02  -9.975273e-02  0 
 -5.143790e-02  -8.293342e-02  0 
 -6.803989e-02  -1.008176e-01  0 
 -6.879512e-02  -9.081166e-02  0 
 -4.685552e-02  -8.079896e-02  0 
 -8.199257e-02  -9.454138e-02  0 
 -4.167337e-02  -7.875778e-02  0 
 -4.195145e-02  -7.453095e-02  0 
 -4.327448e-02  -7.709621e-02  0 
 -4.125699e-02  -7.693774e-02  0 
VECTORS displacement_ITER3 FLOAT
 -5.197351e-02  -4.035946e-02  0 
 -2.412804e-02  -4.043008e-02  0 
 -5.197497e-02  -2.634167e-02  0 
 -5.197578e-02  -3.336107e-02  0 
 -5.026461e-02  -4.233051e-02  0 
 -5.115147e-02  -4.110528e-02  0 
 -4.497913e-02  -4.036335e-02  0 
 -3.796150e-02  -4.040128e-02  0 
 -3.089585e-02  -4.045577e-02  0 
 -2.423426e-02  -3.829096e-02  0 
 -2.426251e-02  -3.601699e-02  0 
 -4.434945e-02  -2.531427e-02  0 
 -3.347388e-02  -3.445948e-02  0 
 -4.741422e-02  -3.555416e-02  0 
 -2.880208e-02  -3.022139e-02  0 
 -3.531660e-02  -2.639060e-02  0 
 -4.156268e-02  -3.325760e-02  0 
 -4.733218e-02  -3.085649e-02  0 
 -2.820485e-02  -3.588574e-02  0 
 -4.702621e-02  -4.380226e-02  0 
 -3.407100e-02  -4.007078e-02  0 
 -3.524162e-02  -3.474584e-02  0 
 -3.066586e-02  -3.811868e-02  0 
 -3.850045e-02  -4.214938e-02  0 
 -4.180943e-02  -4.168223e-02  0 
 -2.875420e-02  -3.923143e-02  0 
 -4.844649e-02  -4.291075e-02  0 
 -2.596678e-02  -3.854303e-02  0 
 -2.623681e-02  -3.484956e-02  0 
 -2.739745e-02  -3.711134e-02  0 
 -2.561348e-02  -3.696663e-02  0 
VECTORS displacement_ITER4 FLOAT
 -2.279181e-02  -1.465408e-02  0 
 -1.136906e-02  -1.440780e-02  0 
 -2.281143e-02  -8.707589e-03  0 
 -2.279851e-02  -1.168768e-02  0 
 -2.018597e-02  -1.385498e-02  0 
 -1.867529e-02  -1.209293e-02  0 
 -1.982731e-02  -1.465343e-02  0 
 -1.685938e-02  -1.464783e-02  0 
 -1.390397e-02  -1.460931e-02  0 
 -1.150908e-02  -1.507495e-02  0 
 -1.160190e-02  -1.576582e-02  0 
 -1.956452e-02  -8.284470e-03  0 
 -1.497008e-02  -1.215611e-02  0 
 -2.086021e-02  -1.262077e-02  0 
 -1.303354e-02  -1.038148e-02  0 
 -1.573564e-02  -8.754006e-03  0 
 -1.837685e-02  -1.165082e-02  0 
 -2.082850e-02  -1.063172e-02  0 
 -1.281504e-02  -1.277547e-02  0 
 -1.920355e-02  -1.527528e-02  0 
 -1.501331e-02  -1.519680e-02  0 
 -1.357197e-02  -1.397655e-02  0 
 -1.344377e-02  -1.533757e-02  0 
 -1.564096e-02  -1.562765e-02  0 
 -1.797083e-02  -1.519356e-02  0 
 -1.306458e-02  -1.492014e-02  0 
 -2.037770e-02  -1.527748e-02  0 
 -1.103106e-02  -1.491871e-02  0 
 -1.095204e-02  -1.618337e-02  0 
 -1.062231e-02  -1.541334e-02  0 
 -1.115824e-02  -1.543829e-02  0 
VECTORS displacement_ITER5 FLOAT
 -8.968429e-03  -7.227173e-03  0 
 -3.086117e-03  -6.855213e-03  0 
 -8.951901e-03  -3.996085e-03  0 
 -8.971189e-03  -5.591381e-03  0 
 -8.042313e-03  -7.181734e-03  0 
 -7.796456e-03  -6.495906e-03  0 
 -7.328568e-03  -7.238340e-03  0 
 -5.692034e-03  -7.219054e-03  0 
 -4.117902e-03  -7.116286e-03  0 
 -3.258138e-03  -6.736036e-03  0 
 -3.382517e-03  -6.669277e-03  0 
 -7.220306e-03  -3.707832e-03  0 
 -4.661703e-03  -5.876470e-03  0 
 -7.907944e-03  -6.111367e-03  0 
 -3.653505e-03  -4.950560e-03  0 
 -5.072184e-03  -4.035508e-03  0 
 -6.525758e-03  -5.595328e-03  0 
 -7.902669e-03  -5.005982e-03  0 
 -3.578082e-03  -6.208512e-03  0 
 -7.322218e-03  -7.687434e-03  0 
 -4.932885e-03  -7.287865e-03  0 
 -5.375264e-03  -6.293954e-03  0 
 -4.493070e-03  -6.908527e-03  0 
 -5.684527e-03  -7.557153e-03  0 
 -6.478750e-03  -7.546066e-03  0 
 -3.973883e-03  -6.903794e-03  0 
 -7.866176e-03  -7.624571e-03  0 
 -3.371054e-03  -6.659828e-03  0 
 -3.342712e-03  -6.754033e-03  0 
 -3.396819e-03  -6.674180e-03  0 
 -3.372733e-03  -6.649277e-03  0 
VECTORS displacement_ITER6 FLOAT
 -6.034785e-03  -4.754587e-03  0 
 -2.489159e-03  -4.392396e-03  0 
 -6.027959e-03  -2.679929e-03  0 
 -6.037446e-03  -3.708878e-03  0 
 -5.974720e-03  -4.947966e-03  0 
 -6.533053e-03  -4.819771e-03  0 
 -4.987811e-03  -4.759061e-03  0 
 -3.941770e-03  -4.747255e-03  0 
 -2.942290e-03  -4.656095e-03  0 
 -2.683283e-03  -4.042497e-03  0 
 -2.828364e-03  -3.747689e-03  0 
 -4.925941e-03  -2.518691e-03  0 
 -3.285181e-03  -3.900939e-03  0 
 -5.356812e-03  -4.041821e-03  0 
 -2.651909e-03  -3.315839e-03  0 
 -3.549210e-03  -2.721723e-03  0 
 -4.478172e-03  -3.715881e-03  0 
 -5.353797e-03  -3.336195e-03  0 
 -2.622649e-03  -4.124428e-03  0 
 -5.249882e-03  -4.876759e-03  0 
 -3.407030e-03  -4.514349e-03  0 
 -3.276214e-03  -3.611016e-03  0 
 -3.085411e-03  -4.133946e-03  0 
 -3.769596e-03  -4.406359e-03  0 
 -4.430716e-03  -4.648718e-03  0 
 -2.890821e-03  -4.326853e-03  0 
 -5.544227e-03  -4.819300e-03  0 
 -2.971156e-03  -3.982841e-03  0 
 -2.958055e-03  -3.752993e-03  0 
 -3.111554e-03  -3.857677e-03  0 
 -2.939905e-03  -3.818142e-03  0 
VECTORS displacement_ITER7 FLOAT
 -4.073386e-03  -3.219896e-03  0 
 -2.036726e-03  -2.974231e-03  0 
 -4.083663e-03  -2.017863e-03  0 
 -4.075536e-03  -2.621984e-03  0 
 -4.179152e-03  -3.751848e-03  0 
 -4.396220e-03  -4.237565e-03  0 
 -3.476245e-03  -3.215482e-03  0 
 -2.878168e-03  -3.202803e-03  0 
 -2.314327e-03  -3.141246e-03  0 
 -2.212291e-03  -3.167666e-03  0 
 -2.349175e-03  -3.393055e-03  0 
 -3.427228e-03  -1.948498e-03  0 
 -2.503637e-03  -2.719607e-03  0 
 -3.683283e-03  -2.810244e-03  0 
 -2.111102e-03  -2.365275e-03  0 
 -2.661975e-03  -2.051810e-03  0 
 -3.182829e-03  -2.615705e-03  0 
 -3.677404e-03  -2.411611e-03  0 
 -2.117551e-03  -2.818940e-03  0 
 -3.796085e-03  -3.684632e-03  0 
 -2.819262e-03  -3.307259e-03  0 
 -3.089238e-03  -3.777990e-03  0 
 -2.733070e-03  -3.275359e-03  0 
 -3.378435e-03  -3.475764e-03  0 
 -3.319271e-03  -3.505411e-03  0 
 -2.429483e-03  -3.119318e-03  0 
 -3.786348e-03  -3.632022e-03  0 
 -2.092049e-03  -3.045234e-03  0 
 -2.136586e-03  -3.513662e-03  0 
 -2.001970e-03  -3.183310e-03  0 
 -2.169477e-03  -3.228396e-03  0 
VECTORS displacement_ITER8 FLOAT
 -3.413428e-03  -3.261361e-03  0 
 -1.831119e-03  -2.971517e-03  0 
 -3.421148e-03  -2.266102e-03  0 
 -3.416243e-03  -2.763675e-03  0 
 -3.746627e-03  -3.862342e-03  0 
 -4.216144e-03  -4.456612e-03  0 
 -2.916204e-03  -3.257587e-03  0 
 -2.425007e-03  -3.237182e-03  0 
 -1.998512e-03  -3.155389e-03  0 
 -1.995543e-03  -3.080449e-03  0 
 -2.132783e-03  -3.241593e-03  0 
 -2.886023e-03  -2.208507e-03  0 
 -2.128174e-03  -2.858195e-03  0 
 -3.089679e-03  -2.922228e-03  0 
 -1.824391e-03  -2.593340e-03  0 
 -2.259183e-03  -2.331584e-03  0 
 -2.672147e-03  -2.766693e-03  0 
 -3.087986e-03  -2.589647e-03  0 
 -1.850423e-03  -2.918970e-03  0 
 -3.343793e-03  -3.616759e-03  0 
 -2.456470e-03  -3.215933e-03  0 
 -2.699630e-03  -3.433195e-03  0 
 -2.418941e-03  -3.133003e-03  0 
 -2.987938e-03  -3.257741e-03  0 
 -2.835283e-03  -3.429191e-03  0 
 -2.148990e-03  -3.058444e-03  0 
 -3.269985e-03  -3.585115e-03  0 
 -1.918201e-03  -2.966855e-03  0 
 -1.966138e-03  -3.332388e-03  0 
 -1.856750e-03  -3.067167e-03  0 
 -1.985650e-03  -3.105335e-03  0 
VECTORS displacement_ITER9 FLOAT
 -3.370244e-03  -3.107353e-03  0 
 -1.838174e-03  -2.840834e-03  0 
 -3.376294e-03  -2.148356e-03  0 
 -3.372941e-03  -2.625945e-03  0 
 -3.632903e-03  -3.711026e-03  0 
 -3.927110e-03  -4.077884e-03  0 
 -2.889144e-03  -3.103722e-03  0 
 -2.418143e-03  -3.079948e-03  0 
 -2.004497e-03  -3.001510e-03  0 
 -2.001428e-03  -2.965692e-03  0 
 -2.135455e-03  -3.148777e-03  0 
 -2.861880e-03  -2.088169e-03  0 
 -2.130141e-03  -2.710460e-03  0 
 -3.057361e-03  -2.779678e-03  0 
 -1.844752e-03  -2.455305e-03  0 
 -2.247994e-03  -2.208601e-03  0 
 -2.652472e-03  -2.630661e-03  0 
 -3.056679e-03  -2.457644e-03  0 
 -1.863754e-03  -2.772551e-03  0 
 -3.547511e-03  -3.531650e-03  0 
 -2.450866e-03  -3.055237e-03  0 
 -2.600337e-03  -3.278303e-03  0 
 -2.376349e-03  -3.016179e-03  0 
 -2.992948e-03  -3.173460e-03  0 
 -2.882876e-03  -3.259364e-03  0 
 -2.139058e-03  -2.927792e-03  0 
 -3.308903e-03  -3.546465e-03  0 
 -1.908658e-03  -2.848554e-03  0 
 -1.962810e-03  -3.224776e-03  0 
 -1.839774e-03  -2.969575e-03  0 
 -1.978975e-03  -3.004310e-03  0 
VECTORS displacement_ITER10 FLOAT
 -3.337630e-03  -3.056630e-03  0 
 -1.846316e-03  -2.792954e-03  0 
 -3.343521e-03  -2.124121e-03  0 
 -3.340041e-03  -2.588680e-03  0 
 -3.619294e-03  -3.671478e-03  0 
 -3.927959e-03  -4.040332e-03  0 
 -2.869906e-03  -3.053043e-03  0 
 -2.409746e-03  -3.031144e-03  0 
 -2.010240e-03  -2.950517e-03  0 
 -2.009138e-03  -2.920409e-03  0 
 -2.143742e-03  -3.115564e-03  0 
 -2.842381e-03  -2.065791e-03  0 
 -2.128965e-03  -2.671993e-03  0 
 -3.033318e-03  -2.737834e-03  0 
 -1.849796e-03  -2.425594e-03  0 
 -2.246250e-03  -2.179826e-03  0 
 -2.639739e-03  -2.592124e-03  0 
 -3.032281e-03  -2.424984e-03  0 
 -1.873153e-03  -2.727505e-03  0 
 -3.525172e-03  -3.509221e-03  0 
 -2.446492e-03  -3.010928e-03  0 
 -2.588519e-03  -3.242737e-03  0 
 -2.374860e-03  -2.978186e-03  0 
 -2.975881e-03  -3.131843e-03  0 
 -2.863160e-03  -3.212623e-03  0 
 -2.141599e-03  -2.884052e-03  0 
 -3.293809e-03  -3.497593e-03  0 
 -1.910013e-03  -2.801589e-03  0 
 -1.958760e-03  -3.197668e-03  0 
 -1.831351e-03  -2.932732e-03  0 
 -1.980242e-03  -2.965742e-03  0 
VECTORS displacement_ITER11 FLOAT
 -3.330571e-03  -3.055608e-03  0 
 -1.833585e-03  -2.795183e-03  0 
 -3.335253e-03  -2.122253e-03  0 
 -3.332840e-03  -2.586765e-03  0 
 -3.622273e-03  -3.678873e-03  0 
 -3.945974e-03  -4.046617e-03  0 
 -2.861857e-03  -3.052513e-03  0 
 -2.400446e-03  -3.031486e-03  0 
 -1.998035e-03  -2.951832e-03  0 
 -1.996947e-03  -2.918993e-03  0 
 -2.131201e-03  -3.109134e-03  0 
 -2.835258e-03  -2.062709e-03  0 
 -2.118297e-03  -2.670638e-03  0 
 -3.025811e-03  -2.736260e-03  0 
 -1.837732e-03  -2.422872e-03  0 
 -2.235994e-03  -2.176785e-03  0 
 -2.631450e-03  -2.590677e-03  0 
 -3.024950e-03  -2.422477e-03  0 
 -1.860113e-03  -2.727122e-03  0 
 -3.501141e-03  -3.541740e-03  0 
 -2.429056e-03  -3.020490e-03  0 
 -2.591479e-03  -3.195113e-03  0 
 -2.362681e-03  -2.981648e-03  0 
 -2.953808e-03  -3.157166e-03  0 
 -2.846219e-03  -3.222414e-03  0 
 -2.127563e-03  -2.888075e-03  0 
 -3.290980e-03  -3.498196e-03  0 
 -1.902045e-03  -2.800994e-03  0 
 -1.950619e-03  -3.188869e-03  0 
 -1.824827e-03  -2.929671e-03  0 
 -1.970990e-03  -2.961774e-03  0 
VECTORS displacement_ITER12 FLOAT
 -3.331528e-03  -3.055705e-03  0 
 -1.835292e-03  -2.794282e-03  0 
 -3.336731e-03  -2.121859e-03  0 
 -3.333831e-03  -2.586936e-03  0 
 -3.620581e-03  -3.676711e-03  0 
 -3.940886e-03  -4.043526e-03  0 
 -2.862951e-03  -3.052387e-03  0 
 -2.401542e-03  -3.031315e-03  0 
 -1.998975e-03  -2.951600e-03  0 
 -1.998441e-03  -2.918145e-03  0 
 -2.132843e-03  -3.109057e-03  0 
 -2.835825e-03  -2.063129e-03  0 
 -2.119330e-03  -2.670403e-03  0 
 -3.026738e-03  -2.736339e-03  0 
 -1.838145e-03  -2.421919e-03  0 
 -2.237062e-03  -2.176123e-03  0 
 -2.632552e-03  -2.590500e-03  0 
 -3.025722e-03  -2.422767e-03  0 
 -1.860995e-03  -2.726896e-03  0 
 -3.505814e-03  -3.533282e-03  0 
 -2.432273e-03  -3.017716e-03  0 
 -2.591110e-03  -3.197932e-03  0 
 -2.364527e-03  -2.979342e-03  0 
 -2.961221e-03  -3.153470e-03  0 
 -2.850300e-03  -3.220957e-03  0 
 -2.129501e-03  -2.886175e-03  0 
 -3.290858e-03  -3.497817e-03  0 
 -1.903158e-03  -2.800222e-03  0 
 -1.951245e-03  -3.188090e-03  0 
 -1.826230e-03  -2.929919e-03  0 
 -1.971977e-03  -2.961329e-03  0 
VECTORS displacement_ITER13 FLOAT
 -3.331454e-03  -3.055459e-03  0 
 -1.834973e-03  -2.794122e-03  0 
 -3.336596e-03  -2.121603e-03  0 
 -3.333752e-03  -2.586607e-03  0 
 -3.620648e-03  -3.677044e-03  0 
 -3.941001e-03  -4.045088e-03  0 
 -2.862774e-03  -3.052174e-03  0 
 -2.401306e-03  -3.031032e-03  0 
 -1.998661e-03  -2.951433e-03  0 
 -1.998155e-03  -2.917947e-03  0 
 -2.132588e-03  -3.108902e-03  0 
 -2.835648e-03  -2.062586e-03  0 
 -2.119114e-03  -2.670108e-03  0 
 -3.026617e-03  -2.736044e-03  0 
 -1.837889e-03  -2.421568e-03  0 
 -2.236858e-03  -2.175919e-03  0 
 -2.632297e-03  -2.590186e-03  0 
 -3.025622e-03  -2.422397e-03  0 
 -1.860640e-03  -2.726674e-03  0 
 -3.505482e-03  -3.532950e-03  0 
 -2.432550e-03  -3.017147e-03  0 
 -2.589925e-03  -3.197140e-03  0 
 -2.363952e-03  -2.978837e-03  0 
 -2.963854e-03  -3.154544e-03  0 
 -2.850834e-03  -3.221660e-03  0 
 -2.129182e-03  -2.885812e-03  0 
 -3.290402e-03  -3.497969e-03  0 
 -1.902890e-03  -2.800010e-03  0 
 -1.950889e-03  -3.188011e-03  0 
 -1.825916e-03  -2.929772e-03  0 
 -1.971687e-03  -2.961145e-03  0 
VECTORS displacement_ITER14 FLOAT
 -3.331550e-03  -3.055565e-03  0 
 -1.834979e-03  -2.794234e-03  0 
 -3.336699e-03  -2.121642e-03  0 
 -3.333850e-03  -2.586687e-03  0 
 -3.620070e-03  -3.676375e-03  0 
 -3.940015e-03  -4.043190e-03  0 
 -2.862846e-03  -3.052277e-03  0 
 -2.401352e-03  -3.031140e-03  0 
 -1.998676e-03  -2.951538e-03  0 
 -1.998149e-03  -2.918009e-03  0 
 -2.132584e-03  -3.108951e-03  0 
 -2.835717e-03  -2.062644e-03  0 
 -2.119138e-03  -2.670191e-03  0 
 -3.026696e-03  -2.736132e-03  0 
 -1.837885e-03  -2.421625e-03  0 
 -2.236890e-03  -2.175963e-03  0 
 -2.632359e-03  -2.590264e-03  0 
 -3.025700e-03  -2.422468e-03  0 
 -1.860645e-03  -2.726757e-03  0 
 -3.505201e-03  -3.532318e-03  0 
 -2.432606e-03  -3.017265e-03  0 
 -2.589997e-03  -3.198111e-03  0 
 -2.363897e-03  -2.979057e-03  0 
 -2.964184e-03  -3.155309e-03  0 
 -2.851073e-03  -3.221826e-03  0 
 -2.129157e-03  -2.885919e-03  0 
 -3.290306e-03  -3.497731e-03  0 
 -1.902883e-03  -2.800064e-03  0 
 -1.950922e-03  -3.188045e-03  0 
 -1.825917e-03  -2.929784e-03  0 
 -1.971693e-03  -2.961191e-03  0 
CELL_DATA 43
TENSORS element_stresses FLOAT
 -2.141521e-02  1.163581e-01  0 
 1.163581e-01  3.119827e-01  0 
 0  0  0 

 4.890893e-03  3.851329e-03  0 
 3.851329e-03  -1.436103e-02  0 
 0  0  0 

 8.495480e-03  2.062004e-02  0 
 2.062004e-02  1.569886e-02  0 
 0  0  0 

 4.962104e-03  -3.145843e-03  0 
 -3.145843e-03  -5.141703e-02  0 
 0  0  0 

 5.681306e-03  4.631672e-02  0 
 4.631672e-02  -2.821711e-02  0 
 0  0  0 

 3.035646e-02  2.572700e-02  0 
 2.572700e-02  -1.172858e-01  0 
 0  0  0 

 -3.748356e-03  4.330228e-02  0 
 4.330228e-02  -3.029920e-02  0 
 0  0  0 

 8.133872e-03  5.117536e-02  0 
 5.117536e-02  8.698927e-02  0 
 0  0  0 

 -7.297645e-03  4.017664e-02  0 
 4.017664e-02  -2.354331e-02  0 
 0  0  0 

 2.245351e-02  1.511931e-03  0 
 1.511931e-03  -1.148746e-02  0 
 0  0  0 

 -9.545964e-03  3.539343e-02  0 
 3.539343e-02  3.557830e-02  0 
 0  0  0 

 -2.887518e-01  -2.600229e-01  0 
 -2.600229e-01  5.425902e-01  0 
 0  0  0 

 4.351611e-02  2.945625e-02  0 
 2.945625e-02  -3.554312e-02  0 
 0  0  0 

 1.659274e-02  1.713924e-02  0 
 1.713924e-02  -3.219317e-02  0 
 0  0  0 

 -2.704913e-01  -8.277619e-02  0 
 -8.277619e-02  1.275636e-02  0 
 0  0  0 

 8.355946e-03  3.457504e-03  0 
 3.457504e-03  -1.013561e-02  0 
 0  0  0 

 2.506831e-02  5.304091e-03  0 
 5.304091e-03  -2.821285e-02  0 
 0  0  0 

 -1.376553e-03  1.105842e-03  0 
 1.105842e-03  -9.455860e-05  0 
 0  0  0 

 -9.757318e-04  8.692399e-04  0 
 8.692399e-04  -4.328920e-04  0 
 0  0  0 

 -1.211853e-03  8.285471e-04  0 
 8.285471e-04  4.181107e-04  0 
 0  0  0 

 -1.439508e-03  9.772868e-04  0 
 9.772868e-04  8.139519e-04  0 
 0  0  0 

 -1.372681e-03  9.947392e-04  0 
 9.947392e-04  3.721810e-04  0 
 0  0  0 

 -6.513939e-04  7.396993e-04  0 
 7.396993e-04  -3.788450e-04  0 
 0  0  0 

 -1.315964e-03  7.752601e-04  0 
 7.752601e-04  -3.102401e-04  0 
 0  0  0 

 -1.398566e-03  1.100070e-03  0 
 1.100070e-03  1.442114e-04  0 
 0  0  0 

 -8.311719e-04  9.978392e-04  0 
 9.978392e-04  4.816698e-05  0 
 0  0  0 

 -1.068010e-03  5.240391e-04  0 
 5.240391e-04  3.088127e-04  0 
 0  0  0 

 -6.981067e-04  5.507720e-04  0 
 5.507720e-04  -1.514166e-04  0 
 0  0  0 

 -1.420269e-03  9.446845e-04  0 
 9.446845e-04  2.729143e-04  0 
 0  0  0 

 -1.090032e-03  7.295989e-04  0 
 7.295989e-04  -2.923546e-04  0 
 0  0  0 

 -9.063799e-04  7.502568e-04  0 
 7.502568e-04  3.310467e-04  0 
 0  0  0 

 -9.474023e-04  -3.283759e-04  0 
 -3.283759e-04  6.889194e-04  0 
 0  0  0 

 -1.135136e-03  8.565085e-06  0 
 8.565085e-06  -3.273906e-04  0 
 0  0  0 

 -1.060146e-03  4.458171e-04  0 
 4.458171e-04  7.321137e-04  0 
 0  0  0 

 -1.650389e-03  7.021213e-04  0 
 7.021213e-04  5.631709e-04  0 
 0  0  0 

 -8.949749e-04  1.685869e-04  0 
 1.685869e-04  7.260334e-04  0 
 0  0  0 

 -1.277153e-03  2.278483e-04  0 
 2.278483e-04  1.344970e-03  0 
 0  0  0 

 -5.389794e-01  -7.728664e-02  0 
 -7.728664e-02  3.790078e-01  0 
 0  0  0 

 -1.083838e-01  -1.949233e-01  0 
 -1.949233e-01  4.928688e-02  0 
 0  0  0 

 -2.076999e-01  -1.129781e-01  0 
 -1.129781e-01  2.891594e-02  0 
 0  0  0 

 -1.173782e-01  -7.523977e-02  0 
 -7.523977e-02  2.088548e-01  0 
 0  0  0 

 -4.418447e-01  -4.736647e-02  0 
 -4.736647e-02  3.196525e-01  0 
 0  0  0 

 -1.515841e-01  -2.663225e-01  0 
 -2.663225e-01  4.440819e-01  0 
 0  0  0 

TENSORS element_stresses FLOAT
 -2.141521e-02  1.163581e-01  0 
 1.163581e-01  3.119827e-01  0 
 0  0  0 

 4.890893e-03  3.851329e-03  0 
 3.851329e-03  -1.436103e-02  0 
 0  0  0 

 8.495480e-03  2.062004e-02  0 
 2.062004e-02  1.569886e-02  0 
 0  0  0 

 4.962104e-03  -3.145843e-03  0 
 -3.145843e-03  -5.141703e-02  0 
 0  0  0 

 5.681306e-03  4.631672e-02  0 
 4.631672e-02  -2.821711e-02  0 
 0  0  0 

 3.035646e-02  2.572700e-02  0 
 2.572700e-02  -1.172858e-01  0 
 0  0  0 

 -3.748356e-03  4.330228e-02  0 
 4.330228e-02  -3.029920e-02  0 
 0  0  0 

 8.133872e-03  5.117536e-02  0 
 5.117536e-02  8.698927e-02  0 
 0  0  0 

 -7.297645e-03  4.017664e-02  0 
 4.017664e-02  -2.354331e-02  0 
 0  0  0 

 2.245351e-02  1.511931e-03  0 
 1.511931e-03  -1.148746e-02  0 
 0  0  0 

 -9.545964e-03  3.539343e-02  0 
 3.539343e-02  3.557830e-02  0 
 0  0  0 

 -2.887518e-01  -2.600229e-01  0 
 -2.600229e-01  5.425902e-01  0 
 0  0  0 

 4.351611e-02  2.945625e-02  0 
 2.945625e-02  -3.554312e-02  0 
 0  0  0 

 1.659274e-02  1.713924e-02  0 
 1.713924e-02  -3.219317e-02  0 
 0  0  0 

 -2.704913e-01  -8.277619e-02  0 
 -8.277619e-02  1.275636e-02  0 
 0  0  0 

 8.355946e-03  3.457504e-03  0 
 3.457504e-03  -1.013561e-02  0 
 0  0  0 

 2.506831e-02  5.304091e-03  0 
 5.304091e-03  -2.821285e-02  0 
 0  0  0 

 -1.376553e-03  1.105842e-03  0 
 1.105842e-03  -9.455860e-05  0 
 0  0  0 

 -9.757318e-04  8.692399e-04  0 
 8.692399e-04  -4.328920e-04  0 
 0  0  0 

 -1.211853e-03  8.285471e-04  0 
 8.285471e-04  4.181107e-04  0 
 0  0  0 

 -1.439508e-03  9.772868e-04  0 
 9.772868e-04  8.139519e-04  0 
 0  0  0 

 -1.372681e-03  9.947392e-04  0 
 9.947392e-04  3.721810e-04  0 
 0  0  0 

 -6.513939e-04  7.396993e-04  0 
 7.396993e-04  -3.788450e-04  0 
 0  0  0 

 -1.315964e-03  7.752601e-04  0 
 7.752601e-04  -3.102401e-04  0 
 0  0  0 

 -1.398566e-03  1.100070e-03  0 
 1.100070e-03  1.442114e-04  0 
 0  0  0 

 -8.311719e-04  9.978392e-04  0 
 9.978392e-04  4.816698e-05  0 
 0  0  0 

 -1.068010e-03  5.240391e-04  0 
 5.240391e-04  3.088127e-04  0 
 0  0  0 

 -6.981067e-04  5.507720e-04  0 
 5.507720e-04  -1.514166e-04  0 
 0  0  0 

 -1.420269e-03  9.446845e-04  0 
 9.446845e-04  2.729143e-04  0 
 0  0  0 

 -1.090032e-03  7.295989e-04  0 
 7.295989e-04  -2.923546e-04  0 
 0  0  0 

 -9.063799e-04  7.502568e-04  0 
 7.502568e-04  3.310467e-04  0 
 0  0  0 

 -9.474023e-04  -3.283759e-04  0 
 -3.283759e-04  6.889194e-04  0 
 0  0  0 

 -1.135136e-03  8.565085e-06  0 
 8.565085e-06  -3.273906e-04  0 
 0  0  0 

 -1.060146e-03  4.458171e-04  0 
 4.458171e-04  7.321137e-04  0 
 0  0  0 

 -1.650389e-03  7.021213e-04  0 
 7.021213e-04  5.631709e-04  0 
 0  0  0 

 -8.949749e-04  1.685869e-04  0 
 1.685869e-04  7.260334e-04  0 
 0  0  0 

 -1.277153e-03  2.278483e-04  0 
 2.278483e-04  1.344970e-03  0 
 0  0  0 

 -5.389794e-01  -7.728664e-02  0 
 -7.728664e-02  3.790078e-01  0 
 0  0  0 

 -1.083838e-01  -1.949233e-01  0 
 -1.949233e-01  4.928688e-02  0 
 0  0  0 

 -2.076999e-01  -1.129781e-01  0 
 -1.129781e-01  2.891594e-02  0 
 0  0  0 

 -1.173782e-01  -7.523977e-02  0 
 -7.523977e-02  2.088548e-01  0 
 0  0  0 

 -4.418447e-01  -4.736647e-02  0 
 -4.736647e-02  3.196525e-01  0 
 0  0  0 

 -1.515841e-01  -2.663225e-01  0 
 -2.663225e-01  4.440819e-01  0 
 0  0  0 

