# vtk DataFile Version 3.1
this is an vtk file created by FEMAC
ASCII
DATASET UNSTRUCTURED_GRID
POINTS 31 FLOAT
3.000000 0.000000 0.000000
3.000000 1.000000 0.000000
2.500000 0.000000 0.000000
2.750000 0.000000 0.000000
3.250000 0.000000 0.000000
3.500000 0.000000 0.000000
3.000000 0.250000 0.000000
3.000000 0.500000 0.000000
3.000000 0.750000 0.000000
3.250000 1.000000 0.000000
3.500000 1.000000 0.000000
2.462570 0.272476 0.000000
2.787596 0.660045 0.000000
2.828307 0.162952 0.000000
2.638134 0.825570 0.000000
2.502535 0.594871 0.000000
2.746177 0.372389 0.000000
2.660592 0.165804 0.000000
2.835146 0.847123 0.000000
3.462570 0.272476 0.000000
3.214699 0.660302 0.000000
3.638134 0.825570 0.000000
3.371728 0.825957 0.000000
3.502535 0.594871 0.000000
3.217467 0.400442 0.000000
3.167285 0.847252 0.000000
3.238340 0.153820 0.000000
3.218472 1.189265 0.000000
3.624223 1.213075 0.000000
3.378554 1.338380 0.000000
3.394250 1.148144 0.000000
CELLS 43 172 
3 12  7  8
3 13  3  0
3 6 13  0
3 15 12 14
3 12 16  7
3 16 15 11
3 12 15 16
3 16  6  7
3 13  6 16
3 13 17  3
3 8 18 12
3 18  8  1
3 17 16 11
3 13 16 17
3 14 12 18
3 17  2  3
3 2 17 11
3 7 20  8
3 10 22 21
3 24 20  7
3 23 24 19
3 23 20 24
3 9 22 10
3 6 24  7
3 23 22 20
3 21 22 23
3 8 25  1
3 25  9  1
3 25  8 20
3 25 22  9
3 20 22 25
3 4 26  0
3 26  6  0
3 5 26  4
3 24 26 19
3 26 24  6
3 5 19 26
3 1  9 27
3 29 30 28
3 30 29 27
3 30 10 28
3 30  9 10
3 27  9 30
CELL_TYPES 43
5 5 5 5 5 5 5 5 5 5 5 5 5 5 5 5 5 5 5 5 5 5 5 5 5 5 5 5 5 5 5 5 5 5 5 5 5 5 5 5 5 5 5 
POINT_DATA 31
VECTORS displacement_ITER1 FLOAT
 -1.344574e-01  -1.268072e-01  0 
 -8.969426e-02  -1.265698e-01  0 
 -1.343880e-01  -1.042578e-01  0 
 -1.344208e-01  -1.155210e-01  0 
 -1.622511e-01  -1.664598e-01  0 
 -1.876091e-01  -2.053105e-01  0 
 -1.231749e-01  -1.267559e-01  0 
 -1.119292e-01  -1.267097e-01  0 
 -1.007303e-01  -1.266486e-01  0 
 -8.973267e-02  -1.431677e-01  0 
 -8.975888e-02  -1.597631e-01  0 
 -1.221329e-01  -1.025652e-01  0 
 -1.047387e-01  -1.171660e-01  0 
 -1.270814e-01  -1.190314e-01  0 
 -9.733714e-02  -1.104684e-01  0 
 -1.076465e-01  -1.043745e-01  0 
 -1.176456e-01  -1.153189e-01  0 
 -1.269405e-01  -1.114752e-01  0 
 -9.639814e-02  -1.192936e-01  0 
 -1.370004e-01  -1.710154e-01  0 
 -1.089498e-01  -1.412160e-01  0 
 -1.141655e-01  -1.821855e-01  0 
 -1.037695e-01  -1.513549e-01  0 
 -1.206526e-01  -1.667614e-01  0 
 -1.216967e-01  -1.441957e-01  0 
 -9.879816e-02  -1.365757e-01  0 
 -1.385059e-01  -1.484378e-01  0 
 -7.718807e-02  -1.410630e-01  0 
 -7.561825e-02  -1.680000e-01  0 
 -6.730163e-02  -1.516881e-01  0 
 -7.992046e-02  -1.527308e-01  0 
VECTORS displacement_ITER2 FLOAT
 -9.127608e-02  -1.230500e-01  0 
 -5.422538e-02  -1.228055e-01  0 
 -9.121209e-02  -1.043331e-01  0 
 -9.124141e-02  -1.136807e-01  0 
 -1.181760e-01  -1.594908e-01  0 
 -1.428290e-01  -1.954299e-01  0 
 -8.191022e-02  -1.229998e-01  0 
 -7.257881e-02  -1.229536e-01  0 
 -6.329773e-02  -1.228907e-01  0 
 -5.427922e-02  -1.323953e-01  0 
 -5.431292e-02  -1.419727e-01  0 
 -8.104154e-02  -1.029293e-01  0 
 -6.661782e-02  -1.150440e-01  0 
 -8.515014e-02  -1.165918e-01  0 
 -6.049164e-02  -1.094969e-01  0 
 -6.902781e-02  -1.044343e-01  0 
 -7.731932e-02  -1.135096e-01  0 
 -8.503197e-02  -1.103219e-01  0 
 -5.972026e-02  -1.168155e-01  0 
 -9.588976e-02  -1.619743e-01  0 
 -7.034951e-02  -1.332667e-01  0 
 -7.873527e-02  -1.654203e-01  0 
 -6.656658e-02  -1.390305e-01  0 
 -8.245795e-02  -1.554752e-01  0 
 -8.142581e-02  -1.375518e-01  0 
 -6.172338e-02  -1.289137e-01  0 
 -9.621596e-02  -1.420607e-01  0 
 -4.704976e-02  -1.311685e-01  0 
 -4.615491e-02  -1.467148e-01  0 
 -4.135738e-02  -1.373000e-01  0 
 -4.863076e-02  -1.379040e-01  0 
VECTORS displacement_ITER3 FLOAT
 -7.506685e-02  -8.327232e-02  0 
 -4.994958e-02  -8.306165e-02  0 
 -7.501644e-02  -7.051503e-02  0 
 -7.503931e-02  -7.688508e-02  0 
 -9.695712e-02  -1.106707e-01  0 
 -1.176097e-01  -1.373180e-01  0 
 -6.868233e-02  -8.323189e-02  0 
 -6.232029e-02  -8.319721e-02  0 
 -5.600282e-02  -8.314587e-02  0 
 -5.002577e-02  -8.260543e-02  0 
 -5.006919e-02  -8.211973e-02  0 
 -6.808671e-02  -6.955743e-02  0 
 -5.826437e-02  -7.782087e-02  0 
 -7.088840e-02  -7.886699e-02  0 
 -5.410591e-02  -7.405194e-02  0 
 -5.990787e-02  -7.058458e-02  0 
 -6.555228e-02  -7.676570e-02  0 
 -7.080671e-02  -7.459465e-02  0 
 -5.358952e-02  -7.904584e-02  0 
 -8.130413e-02  -1.101022e-01  0 
 -6.111793e-02  -8.685479e-02  0 
 -7.278719e-02  -1.033620e-01  0 
 -5.938929e-02  -8.628793e-02  0 
 -7.258973e-02  -1.019207e-01  0 
 -6.934078e-02  -9.220747e-02  0 
 -5.501370e-02  -8.338004e-02  0 
 -8.018663e-02  -9.644769e-02  0 
 -5.041644e-02  -8.263757e-02  0 
 -5.048856e-02  -8.185425e-02  0 
 -5.073738e-02  -8.232783e-02  0 
 -5.034672e-02  -8.230180e-02  0 
VECTORS displacement_ITER4 FLOAT
 -7.582084e-02  -8.127293e-02  0 
 -4.918568e-02  -8.111058e-02  0 
 -7.577998e-02  -6.777891e-02  0 
 -7.579950e-02  -7.451880e-02  0 
 -9.248088e-02  -1.032921e-01  0 
 -1.087157e-01  -1.240224e-01  0 
 -6.906884e-02  -8.124335e-02  0 
 -6.232711e-02  -8.122318e-02  0 
 -5.561716e-02  -8.118761e-02  0 
 -4.927181e-02  -7.963603e-02  0 
 -4.931860e-02  -7.812400e-02  0 
 -6.844428e-02  -6.676202e-02  0 
 -5.802714e-02  -7.552579e-02  0 
 -7.140716e-02  -7.661996e-02  0 
 -5.360856e-02  -7.152414e-02  0 
 -5.977701e-02  -6.784078e-02  0 
 -6.576028e-02  -7.439851e-02  0 
 -7.132317e-02  -7.209772e-02  0 
 -5.305536e-02  -7.683571e-02  0 
 -7.941166e-02  -1.033312e-01  0 
 -6.040216e-02  -8.386249e-02  0 
 -7.052720e-02  -9.546627e-02  0 
 -5.831442e-02  -8.256087e-02  0 
 -7.073699e-02  -9.638937e-02  0 
 -6.880440e-02  -8.870588e-02  0 
 -5.428975e-02  -8.080055e-02  0 
 -7.889072e-02  -9.234961e-02  0 
 -5.043971e-02  -7.979309e-02  0 
 -5.061166e-02  -7.735211e-02  0 
 -5.137492e-02  -7.883057e-02  0 
 -5.020324e-02  -7.873933e-02  0 
VECTORS displacement_ITER5 FLOAT
 -5.581572e-02  -5.971063e-02  0 
 -3.415546e-02  -5.962723e-02  0 
 -5.578809e-02  -4.875307e-02  0 
 -5.580393e-02  -5.422678e-02  0 
 -6.382241e-02  -7.114739e-02  0 
 -7.280133e-02  -7.984099e-02  0 
 -5.033333e-02  -5.969916e-02  0 
 -4.484112e-02  -5.970388e-02  0 
 -3.935564e-02  -5.969472e-02  0 
 -3.425238e-02  -5.958269e-02  0 
 -3.430208e-02  -5.949515e-02  0 
 -4.982809e-02  -4.791636e-02  0 
 -4.133561e-02  -5.506460e-02  0 
 -5.223644e-02  -5.593675e-02  0 
 -3.772415e-02  -5.179498e-02  0 
 -4.277060e-02  -4.877590e-02  0 
 -4.764810e-02  -5.413233e-02  0 
 -5.216951e-02  -5.226000e-02  0 
 -3.727123e-02  -5.615444e-02  0 
 -5.683045e-02  -7.092593e-02  0 
 -4.339507e-02  -6.132929e-02  0 
 -5.003369e-02  -6.603894e-02  0 
 -4.183432e-02  -6.069664e-02  0 
 -5.023818e-02  -6.793167e-02  0 
 -4.976800e-02  -6.381959e-02  0 
 -3.862243e-02  -5.950755e-02  0 
 -5.668664e-02  -6.577838e-02  0 
 -3.434243e-02  -5.955512e-02  0 
 -3.437763e-02  -5.944776e-02  0 
 -3.442401e-02  -5.951491e-02  0 
 -3.434235e-02  -5.950974e-02  0 
VECTORS displacement_ITER6 FLOAT
 -4.735019e-02  -4.234131e-02  0 
 -2.494531e-02  -4.230727e-02  0 
 -4.733042e-02  -3.103791e-02  0 
 -4.734427e-02  -3.668569e-02  0 
 -4.987829e-02  -4.841259e-02  0 
 -5.389696e-02  -5.135042e-02  0 
 -4.169533e-02  -4.234146e-02  0 
 -3.601813e-02  -4.236233e-02  0 
 -3.033314e-02  -4.236999e-02  0 
 -2.505173e-02  -4.312371e-02  0 
 -2.510490e-02  -4.389297e-02  0 
 -4.117891e-02  -3.016955e-02  0 
 -3.239230e-02  -3.756566e-02  0 
 -4.366296e-02  -3.845366e-02  0 
 -2.864736e-02  -3.417779e-02  0 
 -3.388365e-02  -3.104779e-02  0 
 -3.892756e-02  -3.659311e-02  0 
 -4.359585e-02  -3.465752e-02  0 
 -2.817396e-02  -3.870329e-02  0 
 -4.548806e-02  -4.926208e-02  0 
 -3.404227e-02  -4.391314e-02  0 
 -3.818869e-02  -4.515396e-02  0 
 -3.214450e-02  -4.368530e-02  0 
 -3.916459e-02  -4.819314e-02  0 
 -4.020028e-02  -4.539630e-02  0 
 -2.942392e-02  -4.255836e-02  0 
 -4.607735e-02  -4.655162e-02  0 
 -2.449389e-02  -4.298314e-02  0 
 -2.444848e-02  -4.428030e-02  0 
 -2.406263e-02  -4.349740e-02  0 
 -2.463677e-02  -4.354500e-02  0 
VECTORS displacement_ITER7 FLOAT
 -4.149352e-02  -3.270111e-02  0 
 -1.767558e-02  -3.268995e-02  0 
 -4.148024e-02  -2.069658e-02  0 
 -4.149192e-02  -2.669570e-02  0 
 -4.020300e-02  -3.545271e-02  0 
 -4.050136e-02  -3.529004e-02  0 
 -3.548816e-02  -3.270908e-02  0 
 -2.945263e-02  -3.273956e-02  0 
 -2.340326e-02  -3.275559e-02  0 
 -1.779328e-02  -3.227950e-02  0 
 -1.785231e-02  -3.181985e-02  0 
 -3.494469e-02  -1.977340e-02  0 
 -2.559842e-02  -2.764182e-02  0 
 -3.758105e-02  -2.857637e-02  0 
 -2.161329e-02  -2.403867e-02  0 
 -2.718923e-02  -2.070527e-02  0 
 -3.255052e-02  -2.660190e-02  0 
 -3.751160e-02  -2.454301e-02  0 
 -2.110736e-02  -2.885720e-02  0 
 -3.734128e-02  -3.741656e-02  0 
 -2.671169e-02  -3.361956e-02  0 
 -2.984342e-02  -3.112797e-02  0 
 -2.445533e-02  -3.254587e-02  0 
 -3.119041e-02  -3.663318e-02  0 
 -3.309442e-02  -3.514330e-02  0 
 -2.206407e-02  -3.239582e-02  0 
 -3.847988e-02  -3.603049e-02  0 
 -1.816737e-02  -3.228740e-02  0 
 -1.824226e-02  -3.159993e-02  0 
 -1.846845e-02  -3.201719e-02  0 
 -1.811061e-02  -3.198898e-02  0 
VECTORS displacement_ITER8 FLOAT
 -4.457079e-02  -2.702892e-02  0 
 -1.929190e-02  -2.701125e-02  0 
 -4.456202e-02  -1.428136e-02  0 
 -4.457146e-02  -2.065246e-02  0 
 -4.168320e-02  -2.874249e-02  0 
 -4.029043e-02  -2.790674e-02  0 
 -3.819403e-02  -2.703954e-02  0 
 -3.178606e-02  -2.707067e-02  0 
 -2.536634e-02  -2.708440e-02  0 
 -1.941722e-02  -2.592608e-02  0 
 -1.948009e-02  -2.478984e-02  0 
 -3.762013e-02  -1.330357e-02  0 
 -2.769500e-02  -2.165949e-02  0 
 -4.041761e-02  -2.265098e-02  0 
 -2.346702e-02  -1.783664e-02  0 
 -2.938359e-02  -1.429780e-02  0 
 -3.507519e-02  -2.055579e-02  0 
 -4.034506e-02  -1.836802e-02  0 
 -2.293070e-02  -2.294839e-02  0 
 -3.908837e-02  -3.154072e-02  0 
 -2.845126e-02  -2.775520e-02  0 
 -3.090076e-02  -2.397879e-02  0 
 -2.582214e-02  -2.626397e-02  0 
 -3.272710e-02  -3.062813e-02  0 
 -3.519183e-02  -2.946206e-02  0 
 -2.365409e-02  -2.651438e-02  0 
 -4.061249e-02  -3.032755e-02  0 
 -2.030497e-02  -2.601502e-02  0 
 -2.044629e-02  -2.423494e-02  0 
 -2.101016e-02  -2.531345e-02  0 
 -2.013834e-02  -2.524329e-02  0 
VECTORS displacement_ITER9 FLOAT
 -3.300455e-02  -1.914939e-02  0 
 -1.136578e-02  -1.909100e-02  0 
 -3.300272e-02  -8.189477e-03  0 
 -3.300772e-02  -1.366738e-02  0 
 -2.908710e-02  -1.898900e-02  0 
 -2.668418e-02  -1.663570e-02  0 
 -2.752203e-02  -1.916055e-02  0 
 -2.201134e-02  -1.918569e-02  0 
 -1.649772e-02  -1.918617e-02  0 
 -1.149999e-02  -1.747572e-02  0 
 -1.156835e-02  -1.581473e-02  0 
 -2.703142e-02  -7.349299e-03  0 
 -1.849634e-02  -1.453988e-02  0 
 -2.943510e-02  -1.538742e-02  0 
 -1.487253e-02  -1.126040e-02  0 
 -1.994732e-02  -8.208291e-03  0 
 -2.484052e-02  -1.358768e-02  0 
 -2.937419e-02  -1.170479e-02  0 
 -1.441889e-02  -1.565576e-02  0 
 -2.765935e-02  -2.144649e-02  0 
 -1.889868e-02  -1.917243e-02  0 
 -2.010985e-02  -1.390139e-02  0 
 -1.647159e-02  -1.746978e-02  0 
 -2.214292e-02  -2.064787e-02  0 
 -2.466087e-02  -2.056512e-02  0 
 -1.490289e-02  -1.830689e-02  0 
 -2.908145e-02  -2.123490e-02  0 
 -1.278845e-02  -1.762493e-02  0 
 -1.297985e-02  -1.500535e-02  0 
 -1.380287e-02  -1.659101e-02  0 
 -1.253655e-02  -1.648797e-02  0 
VECTORS displacement_ITER10 FLOAT
 -2.991458e-02  -1.575798e-02  0 
 -1.215700e-02  -1.566157e-02  0 
 -2.991833e-02  -6.709463e-03  0 
 -2.991965e-02  -1.123261e-02  0 
 -2.548144e-02  -1.401331e-02  0 
 -2.273567e-02  -1.020605e-02  0 
 -2.538878e-02  -1.576891e-02  0 
 -2.083823e-02  -1.578870e-02  0 
 -1.629291e-02  -1.577794e-02  0 
 -1.229743e-02  -1.465855e-02  0 
 -1.237060e-02  -1.362024e-02  0 
 -2.498649e-02  -6.017200e-03  0 
 -1.793944e-02  -1.196132e-02  0 
 -2.696913e-02  -1.265428e-02  0 
 -1.495978e-02  -9.262255e-03  0 
 -1.913711e-02  -6.731399e-03  0 
 -2.317526e-02  -1.117036e-02  0 
 -2.692020e-02  -9.613764e-03  0 
 -1.459323e-02  -1.289172e-02  0 
 -2.500254e-02  -1.586667e-02  0 
 -1.811971e-02  -1.552388e-02  0 
 -1.748613e-02  -1.026460e-02  0 
 -1.584774e-02  -1.437877e-02  0 
 -2.007746e-02  -1.568917e-02  0 
 -2.281463e-02  -1.619967e-02  0 
 -1.493230e-02  -1.513625e-02  0 
 -2.631114e-02  -1.657347e-02  0 
 -1.311835e-02  -1.472431e-02  0 
 -1.324873e-02  -1.312887e-02  0 
 -1.375464e-02  -1.409264e-02  0 
 -1.296912e-02  -1.402850e-02  0 
VECTORS displacement_ITER11 FLOAT
 -2.297628e-02  -7.738469e-03  0 
 -7.954160e-03  -7.616129e-03  0 
 -2.298318e-02  -3.446192e-05  0 
 -2.298223e-02  -3.886294e-03  0 
 -1.858510e-02  -5.351335e-03  0 
 -1.592450e-02  -1.093150e-03  0 
 -1.912389e-02  -7.748433e-03  0 
 -1.525012e-02  -7.764224e-03  0 
 -1.138817e-02  -7.746146e-03  0 
 -8.098645e-03  -7.445132e-03  0 
 -8.174407e-03  -7.244254e-03  0 
 -1.878360e-02  5.523090e-04  0 
 -1.278643e-02  -4.514343e-03  0 
 -2.046967e-02  -5.097666e-03  0 
 -1.026116e-02  -2.224899e-03  0 
 -1.380582e-02  -6.121556e-05  0 
 -1.724007e-02  -3.836198e-03  0 
 -2.042896e-02  -2.509277e-03  0 
 -9.956029e-03  -5.314136e-03  0 
 -1.845832e-02  -6.829591e-03  0 
 -1.281242e-02  -7.573415e-03  0 
 -1.062910e-02  -3.132647e-03  0 
 -1.058763e-02  -7.107076e-03  0 
 -1.381331e-02  -7.101376e-03  0 
 -1.676148e-02  -7.684069e-03  0 
 -1.018407e-02  -7.514961e-03  0 
 -1.971265e-02  -7.872469e-03  0 
 -8.288136e-03  -7.402225e-03  0 
 -8.337077e-03  -7.175258e-03  0 
 -8.421293e-03  -7.310373e-03  0 
 -8.276638e-03  -7.297791e-03  0 
VECTORS displacement_ITER12 FLOAT
 -1.934340e-02  -7.264844e-03  0 
 -6.332180e-03  -7.110495e-03  0 
 -1.935181e-02  -5.413838e-04  0 
 -1.934924e-02  -3.903610e-03  0 
 -1.576993e-02  -5.277974e-03  0 
 -1.379966e-02  -1.806462e-03  0 
 -1.598214e-02  -7.272397e-03  0 
 -1.260406e-02  -7.282725e-03  0 
 -9.246081e-03  -7.256017e-03  0 
 -6.479637e-03  -7.081955e-03  0 
 -6.558753e-03  -7.032431e-03  0 
 -1.568720e-02  -3.357776e-05  0 
 -1.046025e-02  -4.457250e-03  0 
 -1.715624e-02  -4.961108e-03  0 
 -8.270449e-03  -2.470513e-03  0 
 -1.134869e-02  -5.768411e-04  0 
 -1.433879e-02  -3.862186e-03  0 
 -1.712141e-02  -2.703114e-03  0 
 -8.011154e-03  -5.159536e-03  0 
 -1.541663e-02  -6.456194e-03  0 
 -1.032969e-02  -7.057881e-03  0 
 -7.317987e-03  -3.630799e-03  0 
 -8.118607e-03  -6.847705e-03  0 
 -1.091008e-02  -6.561955e-03  0 
 -1.382464e-02  -7.035634e-03  0 
 -8.086698e-03  -7.146354e-03  0 
 -1.656783e-02  -7.261362e-03  0 
 -6.557223e-03  -7.016918e-03  0 
 -6.590677e-03  -7.042534e-03  0 
 -6.595632e-03  -7.022920e-03  0 
 -6.570586e-03  -7.020340e-03  0 
VECTORS displacement_ITER13 FLOAT
 -1.425295e-02  -1.056732e-02  0 
 -3.364158e-03  -1.036101e-02  0 
 -1.426309e-02  -4.862210e-03  0 
 -1.425817e-02  -7.715911e-03  0 
 -1.229723e-02  -9.866087e-03  0 
 -1.158929e-02  -8.436054e-03  0 
 -1.140173e-02  -1.057033e-02  0 
 -8.541196e-03  -1.057074e-02  0 
 -5.715180e-03  -1.052901e-02  0 
 -3.517953e-03  -8.699184e-03  0 
 -3.602877e-03  -7.024062e-03  0 
 -1.115430e-02  -4.438990e-03  0 
 -6.733448e-03  -8.191267e-03  0 
 -1.239695e-02  -8.613246e-03  0 
 -4.899675e-03  -6.525108e-03  0 
 -7.483741e-03  -4.913839e-03  0 
 -1.000797e-02  -7.683706e-03  0 
 -1.236831e-02  -6.699260e-03  0 
 -4.690757e-03  -8.790439e-03  0 
 -1.133538e-02  -1.065698e-02  0 
 -6.349573e-03  -9.672672e-03  0 
 -3.847064e-03  -6.387029e-03  0 
 -4.306808e-03  -8.615693e-03  0 
 -7.181690e-03  -9.531256e-03  0 
 -9.527318e-03  -1.023029e-02  0 
 -4.497237e-03  -9.693052e-03  0 
 -1.221316e-02  -1.079815e-02  0 
 -4.829640e-03  -8.834452e-03  0 
 -5.018574e-03  -6.226324e-03  0 
 -5.835608e-03  -7.799284e-03  0 
 -4.576162e-03  -7.696029e-03  0 
VECTORS displacement_ITER14 FLOAT
 -1.293712e-02  -8.584139e-03  0 
 -2.770309e-03  -8.352142e-03  0 
 -1.294951e-02  -3.219396e-03  0 
 -1.294280e-02  -5.903443e-03  0 
 -1.116123e-02  -7.971934e-03  0 
 -1.054461e-02  -6.852709e-03  0 
 -1.025677e-02  -8.585858e-03  0 
 -7.570246e-03  -8.581782e-03  0 
 -4.924819e-03  -8.532441e-03  0 
 -2.926976e-03  -6.421938e-03  0 
 -3.014868e-03  -4.482968e-03  0 
 -1.002583e-02  -2.825571e-03  0 
 -5.875715e-03  -6.352685e-03  0 
 -1.119227e-02  -6.747583e-03  0 
 -4.163447e-03  -4.795646e-03  0 
 -6.578848e-03  -3.279347e-03  0 
 -8.946485e-03  -5.875089e-03  0 
 -1.116598e-02  -4.948747e-03  0 
 -3.972380e-03  -6.916523e-03  0 
 -1.013285e-02  -8.734533e-03  0 
 -5.405805e-03  -7.587439e-03  0 
 -2.952344e-03  -4.490332e-03  0 
 -3.439000e-03  -6.408183e-03  0 
 -6.151536e-03  -7.481377e-03  0 
 -8.427443e-03  -8.203774e-03  0 
 -3.711150e-03  -7.594892e-03  0 
 -1.099860e-02  -8.785151e-03  0 
 -4.440180e-03  -6.588418e-03  0 
 -4.653838e-03  -3.555419e-03  0 
 -5.601648e-03  -5.384533e-03  0 
 -4.143418e-03  -5.265006e-03  0 
VECTORS displacement_ITER15 FLOAT
 -1.060619e-02  -9.050183e-03  0 
 -1.143623e-03  -8.778552e-03  0 
 -1.062303e-02  -4.005796e-03  0 
 -1.061311e-02  -6.530699e-03  0 
 -8.631114e-03  -8.226731e-03  0 
 -7.729185e-03  -7.084285e-03  0 
 -8.087358e-03  -9.050570e-03  0 
 -5.566906e-03  -9.039837e-03  0 
 -3.097231e-03  -8.978624e-03  0 
 -1.304448e-03  -7.113082e-03  0 
 -1.396745e-03  -5.445371e-03  0 
 -7.872741e-03  -3.641887e-03  0 
 -3.981017e-03  -6.955123e-03  0 
 -8.966521e-03  -7.325115e-03  0 
 -2.388082e-03  -5.504681e-03  0 
 -4.637824e-03  -4.079123e-03  0 
 -6.855779e-03  -6.507032e-03  0 
 -8.942821e-03  -5.635125e-03  0 
 -2.215815e-03  -7.484028e-03  0 
 -7.643750e-03  -9.129227e-03  0 
 -3.454103e-03  -8.226582e-03  0 
 -9.361821e-04  -5.659685e-03  0 
 -1.608051e-03  -7.225812e-03  0 
 -3.901804e-03  -8.136934e-03  0 
 -6.248399e-03  -8.707549e-03  0 
 -1.942463e-03  -8.212478e-03  0 
 -8.602315e-03  -9.172595e-03  0 
 -2.614869e-03  -7.242615e-03  0 
 -2.801329e-03  -4.656052e-03  0 
 -3.611329e-03  -6.213530e-03  0 
 -2.362785e-03  -6.110784e-03  0 
VECTORS displacement_ITER16 FLOAT
 -1.135982e-02  -1.099623e-02  0 
 9.603561e-05  -1.069905e-02  0 
 -1.138031e-02  -4.936493e-03  0 
 -1.136802e-02  -7.969742e-03  0 
 -8.782304e-03  -1.019661e-02  0 
 -7.229761e-03  -9.122677e-03  0 
 -8.334152e-03  -1.099651e-02  0 
 -5.309088e-03  -1.098192e-02  0 
 -2.340573e-03  -1.091307e-02  0 
 -6.707620e-05  -9.307250e-03  0 
 -1.624778e-04  -7.916906e-03  0 
 -8.075508e-03  -4.500020e-03  0 
 -3.401413e-03  -8.470507e-03  0 
 -9.390053e-03  -8.923800e-03  0 
 -1.479906e-03  -6.722901e-03  0 
 -4.188126e-03  -5.024036e-03  0 
 -6.854153e-03  -7.940074e-03  0 
 -9.361224e-03  -6.893870e-03  0 
 -1.266869e-03  -9.093193e-03  0 
 -7.514187e-03  -1.173690e-02  0 
 -2.872302e-03  -1.057367e-02  0 
 -6.476610e-04  -8.184197e-03  0 
 -8.961125e-04  -9.652180e-03  0 
 -3.428056e-03  -1.093819e-02  0 
 -6.118583e-03  -1.110135e-02  0 
 -1.042133e-03  -1.036135e-02  0 
 -8.784687e-03  -1.152128e-02  0 
 -1.168458e-03  -9.400402e-03  0 
 -1.327713e-03  -7.267146e-03  0 
 -1.997648e-03  -8.548954e-03  0 
 -9.622341e-04  -8.463611e-03  0 
VECTORS displacement_ITER17 FLOAT
 -9.192070e-03  -9.050641e-03  0 
 -1.963558e-04  -8.735729e-03  0 
 -9.212855e-03  -4.211549e-03  0 
 -9.200142e-03  -6.634742e-03  0 
 -6.685294e-03  -7.981675e-03  0 
 -5.014800e-03  -6.654009e-03  0 
 -6.777192e-03  -9.050030e-03  0 
 -4.364648e-03  -9.033082e-03  0 
 -2.011651e-03  -8.959863e-03  0 
 -3.598028e-04  -7.608757e-03  0 
 -4.574237e-04  -6.488625e-03  0 
 -6.573276e-03  -3.868122e-03  0 
 -2.849437e-03  -7.042306e-03  0 
 -7.620098e-03  -7.397393e-03  0 
 -1.335630e-03  -5.662660e-03  0 
 -3.475661e-03  -4.296579e-03  0 
 -5.596021e-03  -6.614307e-03  0 
 -7.598145e-03  -5.777419e-03  0 
 -1.176735e-03  -7.546580e-03  0 
 -5.946834e-03  -9.268445e-03  0 
 -2.476461e-03  -8.667615e-03  0 
 -1.028333e-03  -5.940760e-03  0 
 -1.090002e-03  -7.807110e-03  0 
 -2.842990e-03  -8.670651e-03  0 
 -4.968053e-03  -9.050951e-03  0 
 -1.106349e-03  -8.447557e-03  0 
 -6.974349e-03  -9.335586e-03  0 
 -1.257542e-03  -7.667399e-03  0 
 -1.389268e-03  -5.976514e-03  0 
 -1.922453e-03  -6.989121e-03  0 
 -1.095567e-03  -6.920386e-03  0 
VECTORS displacement_ITER18 FLOAT
 -8.685084e-03  -8.354904e-03  0 
 -3.088491e-04  -8.030517e-03  0 
 -8.706861e-03  -3.822379e-03  0 
 -8.693554e-03  -6.092466e-03  0 
 -5.870320e-03  -6.911104e-03  0 
 -3.879673e-03  -5.113035e-03  0 
 -6.423764e-03  -8.354430e-03  0 
 -4.165233e-03  -8.336460e-03  0 
 -1.967355e-03  -8.260733e-03  0 
 -4.724570e-04  -7.322415e-03  0 
 -5.716427e-04  -6.624567e-03  0 
 -6.233796e-03  -3.502466e-03  0 
 -2.748308e-03  -6.476148e-03  0 
 -7.213300e-03  -6.807286e-03  0 
 -1.336983e-03  -5.189010e-03  0 
 -3.333823e-03  -3.907212e-03  0 
 -5.317519e-03  -6.074627e-03  0 
 -7.193208e-03  -5.290217e-03  0 
 -1.192077e-03  -6.949657e-03  0 
 -5.432396e-03  -8.199579e-03  0 
 -2.470663e-03  -8.142113e-03  0 
 -1.277284e-03  -5.372908e-03  0 
 -1.309425e-03  -7.471947e-03  0 
 -2.672359e-03  -7.958963e-03  0 
 -4.707419e-03  -8.345040e-03  0 
 -1.230682e-03  -7.914306e-03  0 
 -6.445552e-03  -8.490422e-03  0 
 -1.050938e-03  -7.327596e-03  0 
 -1.141227e-03  -6.324689e-03  0 
 -1.461949e-03  -6.919791e-03  0 
 -9.583587e-04  -6.877285e-03  0 
VECTORS displacement_ITER19 FLOAT
 -9.536552e-03  -8.520040e-03  0 
 3.519490e-05  -8.187722e-03  0 
 -9.559030e-03  -3.386283e-03  0 
 -9.545249e-03  -5.957082e-03  0 
 -6.639210e-03  -7.307339e-03  0 
 -4.565541e-03  -5.731602e-03  0 
 -6.974753e-03  -8.519455e-03  0 
 -4.416246e-03  -8.500408e-03  0 
 -1.919908e-03  -8.422476e-03  0 
 -1.294965e-04  -7.622357e-03  0 
 -2.307319e-04  -7.069483e-03  0 
 -6.758108e-03  -3.022132e-03  0 
 -2.807478e-03  -6.385627e-03  0 
 -7.868937e-03  -6.766179e-03  0 
 -1.198444e-03  -4.920134e-03  0 
 -3.470885e-03  -3.476336e-03  0 
 -5.721246e-03  -5.934945e-03  0 
 -7.845544e-03  -5.047564e-03  0 
 -1.028432e-03  -6.914926e-03  0 
 -5.921446e-03  -8.861171e-03  0 
 -2.549048e-03  -8.525444e-03  0 
 -1.500349e-03  -6.177435e-03  0 
 -1.275067e-03  -7.922340e-03  0 
 -2.894245e-03  -8.695742e-03  0 
 -5.090214e-03  -8.779668e-03  0 
 -1.090961e-03  -8.191120e-03  0 
 -7.079420e-03  -8.928154e-03  0 
 -5.986711e-04  -7.608562e-03  0 
 -6.749830e-04  -6.842054e-03  0 
 -9.225653e-04  -7.293008e-03  0 
 -5.301751e-04  -7.259853e-03  0 
VECTORS displacement_ITER20 FLOAT
 -7.931990e-03  -7.110628e-03  0 
 -9.334827e-04  -6.768343e-03  0 
 -7.952796e-03  -3.258962e-03  0 
 -7.939628e-03  -5.188564e-03  0 
 -5.882757e-03  -6.269212e-03  0 
 -4.463202e-03  -5.243868e-03  0 
 -6.011157e-03  -7.108326e-03  0 
 -4.095448e-03  -7.087258e-03  0 
 -2.244205e-03  -7.006824e-03  0 
 -1.098937e-03  -5.964439e-03  0 
 -1.202036e-03  -5.176641e-03  0 
 -5.851538e-03  -2.991791e-03  0 
 -2.898666e-03  -5.518808e-03  0 
 -6.681456e-03  -5.796172e-03  0 
 -1.716346e-03  -4.438646e-03  0 
 -3.393961e-03  -3.344824e-03  0 
 -5.071383e-03  -5.175417e-03  0 
 -6.665022e-03  -4.508124e-03  0 
 -1.602608e-03  -5.923844e-03  0 
 -5.290015e-03  -7.346389e-03  0 
 -2.685430e-03  -6.899963e-03  0 
 -2.017539e-03  -4.832614e-03  0 
 -1.788586e-03  -6.193379e-03  0 
 -2.998401e-03  -6.948238e-03  0 
 -4.589995e-03  -7.207028e-03  0 
 -1.664905e-03  -6.611819e-03  0 
 -6.126696e-03  -7.388232e-03  0 
 -1.746974e-03  -5.979483e-03  0 
 -1.845266e-03  -4.833300e-03  0 
 -2.209844e-03  -5.513086e-03  0 
 -1.639842e-03  -5.465443e-03  0 
VECTORS displacement_ITER21 FLOAT
 -7.713503e-03  -6.458400e-03  0 
 -1.416955e-03  -6.107020e-03  0 
 -7.733494e-03  -2.953926e-03  0 
 -7.720528e-03  -4.709828e-03  0 
 -6.255858e-03  -6.070302e-03  0 
 -5.365201e-03  -5.544997e-03  0 
 -5.966251e-03  -6.454820e-03  0 
 -4.225693e-03  -6.431762e-03  0 
 -2.551734e-03  -6.348616e-03  0 
 -1.583287e-03  -5.511846e-03  0 
 -1.688134e-03  -4.935681e-03  0 
 -5.821933e-03  -2.713613e-03  0 
 -3.141215e-03  -5.012114e-03  0 
 -6.575627e-03  -5.262664e-03  0 
 -2.075855e-03  -4.037541e-03  0 
 -3.589980e-03  -3.040378e-03  0 
 -5.111242e-03  -4.698942e-03  0 
 -6.561006e-03  -4.091448e-03  0 
 -1.978218e-03  -5.381552e-03  0 
 -5.485320e-03  -6.961597e-03  0 
 -2.975715e-03  -6.326776e-03  0 
 -2.237774e-03  -5.045702e-03  0 
 -2.129809e-03  -5.798882e-03  0 
 -3.299627e-03  -6.535567e-03  0 
 -4.723327e-03  -6.611406e-03  0 
 -2.048100e-03  -6.057459e-03  0 
 -6.220300e-03  -6.817937e-03  0 
 -2.071843e-03  -5.499412e-03  0 
 -2.149755e-03  -4.698523e-03  0 
 -2.407559e-03  -5.168349e-03  0 
 -1.999669e-03  -5.134170e-03  0 
VECTORS displacement_ITER22 FLOAT
 -7.552783e-03  -6.111648e-03  0 
 -1.784066e-03  -5.748709e-03  0 
 -7.573045e-03  -2.867047e-03  0 
 -7.559662e-03  -4.492895e-03  0 
 -6.395172e-03  -5.934441e-03  0 
 -5.753633e-03  -5.667716e-03  0 
 -5.935384e-03  -6.107135e-03  0 
 -4.326469e-03  -6.081346e-03  0 
 -2.786921e-03  -5.994005e-03  0 
 -1.951499e-03  -5.246542e-03  0 
 -2.058527e-03  -4.766301e-03  0 
 -5.802894e-03  -2.647109e-03  0 
 -3.326184e-03  -4.773211e-03  0 
 -6.499294e-03  -5.004960e-03  0 
 -2.349326e-03  -3.878376e-03  0 
 -3.739130e-03  -2.955238e-03  0 
 -5.143561e-03  -4.484053e-03  0 
 -6.486233e-03  -3.921210e-03  0 
 -2.264528e-03  -5.114092e-03  0 
 -5.563830e-03  -6.722216e-03  0 
 -3.179301e-03  -5.997299e-03  0 
 -2.330700e-03  -5.220824e-03  0 
 -2.353277e-03  -5.566672e-03  0 
 -3.501913e-03  -6.284389e-03  0 
 -4.805319e-03  -6.281950e-03  0 
 -2.324231e-03  -5.750321e-03  0 
 -6.234457e-03  -6.497334e-03  0 
 -2.367955e-03  -5.221013e-03  0 
 -2.436676e-03  -4.577920e-03  0 
 -2.645594e-03  -4.951097e-03  0 
 -2.311926e-03  -4.923220e-03  0 
VECTORS displacement_ITER23 FLOAT
 -6.712055e-03  -5.327885e-03  0 
 -2.335014e-03  -4.959757e-03  0 
 -6.732495e-03  -2.780989e-03  0 
 -6.718966e-03  -4.057932e-03  0 
 -5.568034e-03  -4.825449e-03  0 
 -4.962205e-03  -4.133882e-03  0 
 -5.443522e-03  -5.323141e-03  0 
 -4.184275e-03  -5.296196e-03  0 
 -2.995190e-03  -5.206897e-03  0 
 -2.502352e-03  -4.880179e-03  0 
 -2.610853e-03  -4.825856e-03  0 
 -5.342457e-03  -2.613510e-03  0 
 -3.407120e-03  -4.283951e-03  0 
 -5.885901e-03  -4.460761e-03  0 
 -2.660902e-03  -3.597642e-03  0 
 -3.728118e-03  -2.866618e-03  0 
 -4.822188e-03  -4.054436e-03  0 
 -5.876855e-03  -3.611057e-03  0 
 -2.606862e-03  -4.555210e-03  0 
 -5.089079e-03  -5.336786e-03  0 
 -3.335427e-03  -5.235933e-03  0 
 -2.248305e-03  -4.630473e-03  0 
 -2.678016e-03  -5.076211e-03  0 
 -3.407730e-03  -5.176752e-03  0 
 -4.548031e-03  -5.294453e-03  0 
 -2.721215e-03  -5.109179e-03  0 
 -5.625815e-03  -5.402818e-03  0 
 -2.596456e-03  -4.800565e-03  0 
 -2.623862e-03  -4.851750e-03  0 
 -2.618335e-03  -4.803535e-03  0 
 -2.610703e-03  -4.802282e-03  0 
VECTORS displacement_ITER24 FLOAT
 -6.207347e-03  -5.455760e-03  0 
 -2.440789e-03  -5.080717e-03  0 
 -6.227381e-03  -3.213827e-03  0 
 -6.213953e-03  -4.338132e-03  0 
 -5.347691e-03  -5.095254e-03  0 
 -5.001242e-03  -4.499880e-03  0 
 -5.091204e-03  -5.450290e-03  0 
 -3.985371e-03  -5.421819e-03  0 
 -2.951149e-03  -5.330233e-03  0 
 -2.608222e-03  -4.976426e-03  0 
 -2.718296e-03  -4.899765e-03  0 
 -5.003798e-03  -3.069572e-03  0 
 -3.306200e-03  -4.539483e-03  0 
 -5.480271e-03  -4.693040e-03  0 
 -2.661507e-03  -3.945147e-03  0 
 -3.586533e-03  -3.299458e-03  0 
 -4.544203e-03  -4.336769e-03  0 
 -5.472916e-03  -3.945758e-03  0 
 -2.621462e-03  -4.778806e-03  0 
 -4.931413e-03  -5.410192e-03  0 
 -3.313486e-03  -5.301838e-03  0 
 -2.494002e-03  -4.645274e-03  0 
 -2.796845e-03  -5.108089e-03  0 
 -3.462948e-03  -5.185301e-03  0 
 -4.364712e-03  -5.381513e-03  0 
 -2.785120e-03  -5.177139e-03  0 
 -5.337756e-03  -5.506211e-03  0 
 -2.719130e-03  -4.899275e-03  0 
 -2.748657e-03  -4.915412e-03  0 
 -2.753534e-03  -4.887260e-03  0 
 -2.730073e-03  -4.884954e-03  0 
VECTORS displacement_ITER25 FLOAT
 -5.873315e-03  -4.826353e-03  0 
 -2.388385e-03  -4.438484e-03  0 
 -5.893430e-03  -2.722989e-03  0 
 -5.879759e-03  -3.777816e-03  0 
 -5.302241e-03  -4.612518e-03  0 
 -5.291505e-03  -4.028074e-03  0 
 -4.826365e-03  -4.819990e-03  0 
 -3.791079e-03  -4.789008e-03  0 
 -2.829852e-03  -4.693259e-03  0 
 -2.556193e-03  -4.270872e-03  0 
 -2.668803e-03  -4.134540e-03  0 
 -4.745228e-03  -2.589693e-03  0 
 -3.156730e-03  -3.966216e-03  0 
 -5.191081e-03  -4.110965e-03  0 
 -2.559327e-03  -3.414876e-03  0 
 -3.417419e-03  -2.810442e-03  0 
 -4.312676e-03  -3.777445e-03  0 
 -5.184562e-03  -3.410327e-03  0 
 -2.526766e-03  -4.188195e-03  0 
 -4.918644e-03  -4.689306e-03  0 
 -3.279722e-03  -4.598445e-03  0 
 -2.910372e-03  -3.863080e-03  0 
 -2.912242e-03  -4.330325e-03  0 
 -3.580382e-03  -4.435960e-03  0 
 -4.259340e-03  -4.705923e-03  0 
 -2.772846e-03  -4.450005e-03  0 
 -5.202857e-03  -4.843892e-03  0 
 -2.712254e-03  -4.200681e-03  0 
 -2.747566e-03  -4.121359e-03  0 
 -2.781122e-03  -4.149142e-03  0 
 -2.713919e-03  -4.143758e-03  0 
VECTORS displacement_ITER26 FLOAT
 -4.773096e-03  -4.205688e-03  0 
 -2.147567e-03  -3.804529e-03  0 
 -4.792220e-03  -2.530944e-03  0 
 -4.778803e-03  -3.371104e-03  0 
 -4.805391e-03  -4.463753e-03  0 
 -5.288983e-03  -4.337459e-03  0 
 -3.940172e-03  -4.197847e-03  0 
 -3.120693e-03  -4.164018e-03  0 
 -2.377728e-03  -4.064112e-03  0 
 -2.314924e-03  -3.536364e-03  0 
 -2.429789e-03  -3.303545e-03  0 
 -3.877794e-03  -2.430128e-03  0 
 -2.624109e-03  -3.523766e-03  0 
 -4.229824e-03  -3.636709e-03  0 
 -2.169830e-03  -3.101918e-03  0 
 -2.827299e-03  -2.617981e-03  0 
 -3.530735e-03  -3.373275e-03  0 
 -4.225546e-03  -3.080128e-03  0 
 -2.157110e-03  -3.700275e-03  0 
 -4.387231e-03  -4.294185e-03  0 
 -2.884950e-03  -3.930839e-03  0 
 -3.209723e-03  -3.230353e-03  0 
 -2.781552e-03  -3.555845e-03  0 
 -3.407010e-03  -3.855736e-03  0 
 -3.642579e-03  -4.146984e-03  0 
 -2.492079e-03  -3.720038e-03  0 
 -4.467138e-03  -4.340100e-03  0 
 -2.543890e-03  -3.478126e-03  0 
 -2.588394e-03  -3.243000e-03  0 
 -2.669072e-03  -3.363095e-03  0 
 -2.530111e-03  -3.352436e-03  0 
VECTORS displacement_ITER27 FLOAT
 -3.963403e-03  -3.271932e-03  0 
 -2.307533e-03  -2.863056e-03  0 
 -3.981312e-03  -2.085131e-03  0 
 -3.968443e-03  -2.681003e-03  0 