# vtk DataFile Version 3.1
this is an vtk file created by FEMAC
ASCII
DATASET UNSTRUCTURED_GRID
POINTS 34 FLOAT
3.000000 1.000000 0.000000
4.000000 1.000000 0.000000
3.000000 1.250000 0.000000
3.000000 1.500000 0.000000
3.000000 1.750000 0.000000
3.500000 1.000000 0.000000
3.750000 1.000000 0.000000
4.000000 1.250000 0.000000
4.000000 1.500000 0.000000
4.250000 1.000000 0.000000
4.500000 1.000000 0.000000
2.661856 1.507893 0.000000
2.832250 1.761003 0.000000
2.832172 1.245757 0.000000
3.638134 0.825570 0.000000
3.835146 0.847123 0.000000
3.218472 1.189265 0.000000
3.400214 1.786986 0.000000
3.624223 1.213075 0.000000
3.182276 1.370472 0.000000
3.378554 1.338380 0.000000
3.237145 1.579099 0.000000
3.809442 1.354171 0.000000
3.817501 1.632951 0.000000
3.559152 1.528294 0.000000
3.836733 1.163449 0.000000
4.178278 1.324222 0.000000
4.225000 1.500000 0.000000
4.391405 1.203564 0.000000
4.408689 1.438835 0.000000
4.358519 1.602133 0.000000
4.628796 1.390176 0.000000
4.544074 1.619719 0.000000
4.163937 1.155557 0.000000
CELLS 42 168 
3 2 13  0
3 12  3  4
3 12 11  3
3 3 13  2
3 11 13  3
3 14  6  5
3 6 15  1
3 14 15  6
3 2 19  3
3 6 18  5
3 20 19 16
3 16 19  2
3 0 16  2
3 19 21  3
3 21  4  3
3 21 19 20
3 8 22  7
3 8 23 22
3 6 25 18
3 7 25  1
3 25  6  1
3 22 25  7
3 22 18 25
3 18 24 20
3 24 18 22
3 24 22 23
3 24 21 20
3 21 24 17
3 26  8  7
3 26 27  8
3 26 29 27
3 28  9 10
3 28 29 26
3 27 29 30
3 33  7  1
3 9 33  1
3 7 33 26
3 28 33  9
3 28 26 33
3 32 30 29
3 32 29 31
3 31 29 28
CELL_TYPES 42
5 5 5 5 5 5 5 5 5 5 5 5 5 5 5 5 5 5 5 5 5 5 5 5 5 5 5 5 5 5 5 5 5 5 5 5 5 5 5 5 5 5 
POINT_DATA 34
VECTORS displacement_ITER1 FLOAT
 -9.656975e-02  -1.297795e-01  0 
 -9.718674e-02  -2.009550e-01  0 
 -7.904534e-02  -1.297571e-01  0 
 -6.140803e-02  -1.296864e-01  0 
 -4.375471e-02  -1.297111e-01  0 
 -9.714506e-02  -1.651070e-01  0 
 -9.715576e-02  -1.830281e-01  0 
 -7.927893e-02  -2.009082e-01  0 
 -6.138453e-02  -2.008903e-01  0 
 -1.152484e-01  -2.479612e-01  0 
 -1.286273e-01  -3.019381e-01  0 
 -5.496954e-02  -9.861406e-02  0 
 -4.485849e-02  -1.133840e-01  0 
 -7.657703e-02  -1.151206e-01  0 
 -1.009243e-01  -1.720743e-01  0 
 -1.031382e-01  -1.876041e-01  0 
 -8.332632e-02  -1.451294e-01  0 
 -4.105107e-02  -1.580534e-01  0 
 -8.187678e-02  -1.740079e-01  0 
 -7.057885e-02  -1.425757e-01  0 
 -7.286796e-02  -1.564476e-01  0 
 -5.580452e-02  -1.464548e-01  0 
 -7.181529e-02  -1.872429e-01  0 
 -5.187526e-02  -1.878223e-01  0 
 -5.936511e-02  -1.693059e-01  0 
 -8.545504e-02  -1.892249e-01  0 
 -7.762921e-02  -2.290898e-01  0 
 -6.953800e-02  -2.340985e-01  0 
 -8.964543e-02  -2.614267e-01  0 
 -7.871022e-02  -2.586748e-01  0 
 -7.409109e-02  -2.487987e-01  0 
 -8.369853e-02  -2.749246e-01  0 
 -8.291059e-02  -2.687993e-01  0 
 -8.977605e-02  -2.251457e-01  0 
VECTORS displacement_ITER2 FLOAT
 -4.850896e-02  -8.220410e-02  0 
 -4.936883e-02  -1.056187e-01  0 
 -4.307475e-02  -8.215018e-02  0 
 -3.740514e-02  -8.200509e-02  0 
 -3.159416e-02  -8.195029e-02  0 
 -4.935083e-02  -9.354254e-02  0 
 -4.934683e-02  -9.958803e-02  0 
 -4.336707e-02  -1.055576e-01  0 
 -3.737790e-02  -1.055566e-01  0 
 -5.694831e-02  -1.246864e-01  0 
 -5.543246e-02  -1.266753e-01  0 
 -2.977171e-02  -5.858023e-02  0 
 -2.864238e-02  -6.838181e-02  0 
 -4.159467e-02  -7.304783e-02  0 
 -5.161133e-02  -9.408669e-02  0 
 -5.334142e-02  -1.013396e-01  0 
 -4.443929e-02  -8.701797e-02  0 
 -3.080937e-02  -9.127938e-02  0 
 -4.420218e-02  -9.656211e-02  0 
 -4.039686e-02  -8.621159e-02  0 
 -4.114494e-02  -9.069862e-02  0 
 -3.558818e-02  -8.748091e-02  0 
 -4.087037e-02  -1.009748e-01  0 
 -3.420184e-02  -1.011928e-01  0 
 -3.671693e-02  -9.494398e-02  0 
 -4.541841e-02  -1.016592e-01  0 
 -4.418105e-02  -1.139131e-01  0 
 -3.840676e-02  -1.169230e-01  0 
 -5.305065e-02  -1.283512e-01  0 
 -4.255462e-02  -1.294915e-01  0 
 -3.511422e-02  -1.258661e-01  0 
 -4.683503e-02  -1.462923e-01  0 
 -3.593792e-02  -1.401542e-01  0 
 -4.855919e-02  -1.150874e-01  0 
VECTORS displacement_ITER3 FLOAT
 -2.493123e-02  -3.644177e-02  0 
 -2.627678e-02  -3.698971e-02  0 
 -2.539191e-02  -3.635418e-02  0 
 -2.554860e-02  -3.616035e-02  0 
 -2.556380e-02  -3.613697e-02  0 
 -2.625864e-02  -3.601896e-02  0 
 -2.623992e-02  -3.653491e-02  0 
 -2.586363e-02  -3.685176e-02  0 
 -2.553002e-02  -3.679058e-02  0 
 -3.947049e-02  -4.374716e-02  0 
 -4.569750e-02  -4.166448e-02  0 
 -1.525912e-02  -2.873338e-02  0 
 -2.028022e-02  -2.844581e-02  0 
 -2.323315e-02  -3.677497e-02  0 
 -3.845651e-02  -3.889796e-02  0 
 -3.795364e-02  -4.165245e-02  0 
 -2.534373e-02  -3.609597e-02  0 
 -2.551247e-02  -3.617775e-02  0 
 -2.581498e-02  -3.631267e-02  0 
 -2.554419e-02  -3.612463e-02  0 
 -2.556600e-02  -3.603869e-02  0 
 -2.555750e-02  -3.610884e-02  0 
 -2.569553e-02  -3.653861e-02  0 
 -2.537475e-02  -3.655465e-02  0 
 -2.548964e-02  -3.616381e-02  0 
 -2.595119e-02  -3.664748e-02  0 
 -2.944060e-02  -3.710467e-02  0 
 -3.061512e-02  -3.696504e-02  0 
 -3.543148e-02  -4.117390e-02  0 
 -3.306275e-02  -4.063808e-02  0 
 -3.318694e-02  -3.929324e-02  0 
 -3.546529e-02  -4.524160e-02  0 
 -3.541505e-02  -4.325805e-02  0 
 -3.026074e-02  -3.728413e-02  0 
VECTORS displacement_ITER4 FLOAT
 -1.270655e-02  -1.396529e-02  0 
 -1.371113e-02  -1.756739e-02  0 
 -1.221571e-02  -1.387684e-02  0 
 -1.148738e-02  -1.368757e-02  0 
 -1.066308e-02  -1.365063e-02  0 
 -1.356548e-02  -1.545646e-02  0 
 -1.362317e-02  -1.648868e-02  0 
 -1.257253e-02  -1.750768e-02  0 
 -1.155822e-02  -1.747938e-02  0 
 -1.442048e-02  -1.514748e-02  0 
 -8.603011e-03  -2.119042e-02  0 
 -5.593079e-03  -4.456170e-03  0 
 -8.857833e-03  -7.471215e-03  0 
 -1.066216e-02  -1.126344e-02  0 
 -1.705456e-02  -1.687873e-02  0 
 -1.678354e-02  -1.803825e-02  0 
 -1.239674e-02  -1.443776e-02  0 
 -1.041775e-02  -1.503786e-02  0 
 -1.269273e-02  -1.591908e-02  0 
 -1.193937e-02  -1.430144e-02  0 
 -1.208876e-02  -1.491721e-02  0 
 -1.123881e-02  -1.443371e-02  0 
 -1.213310e-02  -1.669289e-02  0 
 -1.103596e-02  -1.672535e-02  0 
 -1.140710e-02  -1.561972e-02  0 
 -1.293630e-02  -1.681495e-02  0 
 -1.205348e-02  -1.759948e-02  0 
 -1.279051e-02  -1.630584e-02  0 
 -1.222607e-02  -1.865646e-02  0 
 -1.335178e-02  -1.602325e-02  0 
 -1.377295e-02  -1.502215e-02  0 
 -1.458213e-02  -1.555537e-02  0 
 -1.431356e-02  -1.353302e-02  0 
 -1.342976e-02  -1.666870e-02  0 
VECTORS displacement_ITER5 FLOAT
 -2.796847e-03  -7.328654e-03  0 
 -3.656419e-03  -5.980403e-03  0 
 -3.453995e-03  -7.235514e-03  0 
 -3.921315e-03  -7.045820e-03  0 
 -4.270734e-03  -6.975095e-03  0 
 -3.473135e-03  -6.426494e-03  0 
 -3.554194e-03  -6.157591e-03  0 
 -3.770753e-03  -5.915975e-03  0 
 -4.023667e-03  -5.874735e-03  0 
 -6.725784e-03  -8.846942e-03  0 
 -3.116158e-03  -1.067827e-02  0 
 -2.509815e-03  -4.384194e-03  0 
 -2.915092e-03  -6.242305e-03  0 
 -3.138028e-03  -6.531212e-03  0 
 -4.313654e-03  -6.477878e-03  0 
 -4.422142e-03  -6.298640e-03  0 
 -3.347167e-03  -6.765791e-03  0 
 -4.286335e-03  -6.418662e-03  0 
 -3.712271e-03  -6.215828e-03  0 
 -3.751107e-03  -6.793406e-03  0 
 -3.744757e-03  -6.466787e-03  0 
 -4.062732e-03  -6.652350e-03  0 
 -3.855470e-03  -6.062308e-03  0 
 -4.187501e-03  -6.049074e-03  0 
 -4.010140e-03  -6.260613e-03  0 
 -3.700612e-03  -6.041413e-03  0 
 -4.225712e-03  -6.560147e-03  0 
 -4.379001e-03  -6.493570e-03  0 
 -5.788073e-03  -9.569099e-03  0 
 -5.023502e-03  -8.123739e-03  0 
 -4.230910e-03  -7.429016e-03  0 
 -6.368558e-03  -1.039915e-02  0 
 -4.391938e-03  -8.736784e-03  0 
 -4.654874e-03  -6.763426e-03  0 
VECTORS displacement_ITER6 FLOAT
 -2.577454e-03  -3.861368e-03  0 
 -3.237594e-03  -4.361319e-03  0 
 -2.695096e-03  -3.766985e-03  0 
 -2.652171e-03  -3.586134e-03  0 
 -2.497551e-03  -3.500776e-03  0 
 -3.004342e-03  -4.092671e-03  0 
 -3.124881e-03  -4.149085e-03  0 
 -2.945718e-03  -4.321747e-03  0 
 -2.780334e-03  -4.303930e-03  0 
 -3.126084e-03  -4.336792e-03  0 
 -3.776889e-03  -6.778221e-03  0 
 -1.468313e-03  -2.702302e-03  0 
 -2.325254e-03  -2.533495e-03  0 
 -2.258584e-03  -3.485217e-03  0 
 -3.484016e-03  -4.279347e-03  0 
 -3.471189e-03  -4.062025e-03  0 
 -2.714531e-03  -3.751043e-03  0 
 -2.444771e-03  -3.768784e-03  0 
 -2.970644e-03  -3.993188e-03  0 
 -2.741137e-03  -3.704948e-03  0 
 -2.795918e-03  -3.783476e-03  0 
 -2.640492e-03  -3.669947e-03  0 
 -2.863981e-03  -4.160433e-03  0 
 -2.701523e-03  -4.156440e-03  0 
 -2.704624e-03  -3.920553e-03  0 
 -3.026679e-03  -4.167161e-03  0 
 -2.882239e-03  -4.992517e-03  0 
 -2.966130e-03  -5.125978e-03  0 
 -2.530723e-03  -5.322859e-03  0 
 -2.981717e-03  -5.532005e-03  0 
 -3.256750e-03  -5.495709e-03  0 
 -2.701393e-03  -5.322987e-03  0 
 -3.412200e-03  -5.877221e-03  0 
 -3.031160e-03  -4.603237e-03  0 
VECTORS displacement_ITER7 FLOAT
 -2.077002e-03  -3.057109e-03  0 
 -2.525368e-03  -4.061220e-03  0 
 -2.021864e-03  -2.937478e-03  0 
 -1.787566e-03  -2.791061e-03  0 
 -1.420149e-03  -2.665118e-03  0 
 -2.361646e-03  -3.382264e-03  0 
 -2.430911e-03  -3.699207e-03  0 
 -2.097567e-03  -4.015125e-03  0 
 -1.794640e-03  -3.990734e-03  0 
 -2.585883e-03  -4.878871e-03  0 
 -2.654228e-03  -5.709083e-03  0 
 -1.302471e-03  -2.240889e-03  0 
 -1.361061e-03  -2.093743e-03  0 
 -1.778853e-03  -2.644773e-03  0 
 -2.860428e-03  -3.222473e-03  0 
 -2.948706e-03  -4.039368e-03  0 
 -2.095644e-03  -3.083264e-03  0 
 -1.456128e-03  -3.282259e-03  0 
 -2.129274e-03  -3.494724e-03  0 
 -1.951911e-03  -3.034227e-03  0 
 -1.992367e-03  -3.244504e-03  0 
 -1.728312e-03  -3.064080e-03  0 
 -1.960485e-03  -3.752960e-03  0 
 -1.681176e-03  -3.817922e-03  0 
 -1.788516e-03  -3.477970e-03  0 
 -2.220440e-03  -3.780246e-03  0 
 -2.056477e-03  -4.556841e-03  0 
 -1.786705e-03  -4.796442e-03  0 
 -2.309264e-03  -5.163589e-03  0 
 -1.893636e-03  -5.196104e-03  0 
 -1.769945e-03  -5.137952e-03  0 
 -2.032846e-03  -5.623806e-03  0 
 -1.833873e-03  -5.329850e-03  0 
 -2.300446e-03  -4.556604e-03  0 
VECTORS displacement_ITER8 FLOAT
 -1.822860e-03  -2.957887e-03  0 
 -2.327948e-03  -3.823088e-03  0 
 -1.859698e-03  -2.840224e-03  0 
 -1.672889e-03  -2.690061e-03  0 
 -1.375512e-03  -2.571968e-03  0 
 -2.140723e-03  -3.266561e-03  0 
 -2.228051e-03  -3.509622e-03  0 
 -1.943415e-03  -3.786620e-03  0 
 -1.657274e-03  -3.783959e-03  0 
 -2.435084e-03  -4.628223e-03  0 
 -2.530214e-03  -5.336428e-03  0 
 -1.244373e-03  -2.113337e-03  0 
 -1.122942e-03  -2.144923e-03  0 
 -1.719748e-03  -2.651926e-03  0 
 -2.628582e-03  -3.255675e-03  0 
 -2.704526e-03  -3.788571e-03  0 
 -1.919344e-03  -2.932191e-03  0 
 -1.375530e-03  -3.121440e-03  0 
 -1.974420e-03  -3.320054e-03  0 
 -1.814225e-03  -2.896289e-03  0 
 -1.849053e-03  -3.073441e-03  0 
 -1.623779e-03  -2.918289e-03  0 
 -1.823072e-03  -3.550445e-03  0 
 -1.541316e-03  -3.623159e-03  0 
 -1.665046e-03  -3.293122e-03  0 
 -2.054608e-03  -3.571649e-03  0 
 -1.863676e-03  -4.325742e-03  0 
 -1.681389e-03  -4.452577e-03  0 
 -2.002375e-03  -4.925231e-03  0 
 -1.774991e-03  -4.909003e-03  0 
 -1.679720e-03  -4.752721e-03  0 
 -1.785403e-03  -5.175322e-03  0 
 -1.813178e-03  -5.082290e-03  0 
 -2.092834e-03  -4.280704e-03  0 
VECTORS displacement_ITER9 FLOAT
 -1.832939e-03  -2.855032e-03  0 
 -2.319280e-03  -3.730897e-03  0 
 -1.853845e-03  -2.741673e-03  0 
 -1.665389e-03  -2.596667e-03  0 
 -1.376398e-03  -2.478441e-03  0 
 -2.137429e-03  -3.154508e-03  0 
 -2.220374e-03  -3.413921e-03  0 
 -1.934042e-03  -3.693219e-03  0 
 -1.640771e-03  -3.698446e-03  0 
 -2.414833e-03  -4.476144e-03  0 
 -2.479802e-03  -5.186939e-03  0 
 -1.220035e-03  -2.029374e-03  0 
 -1.312643e-03  -1.946795e-03  0 
 -1.623895e-03  -2.484067e-03  0 
 -2.601738e-03  -3.229247e-03  0 
 -2.651547e-03  -3.455799e-03  0 
 -1.915832e-03  -2.843912e-03  0 
 -1.373688e-03  -3.022453e-03  0 
 -1.962302e-03  -3.225659e-03  0 
 -1.805875e-03  -2.802707e-03  0 
 -1.840434e-03  -2.973003e-03  0 
 -1.615974e-03  -2.826159e-03  0 
 -1.813259e-03  -3.453082e-03  0 
 -1.518559e-03  -3.524231e-03  0 
 -1.654404e-03  -3.193202e-03  0 
 -2.044439e-03  -3.477365e-03  0 
 -1.894858e-03  -4.175338e-03  0 
 -1.720317e-03  -4.237827e-03  0 
 -2.141447e-03  -4.806562e-03  0 
 -1.875834e-03  -4.730230e-03  0 
 -1.591253e-03  -4.556881e-03  0 
 -2.094617e-03  -5.380978e-03  0 
 -1.629823e-03  -5.035431e-03  0 
 -2.131488e-03  -4.177350e-03  0 
VECTORS displacement_ITER10 FLOAT
 -1.841573e-03  -2.792043e-03  0 
 -2.322534e-03  -3.715230e-03  0 
 -1.845267e-03  -2.684930e-03  0 
 -1.645272e-03  -2.540550e-03  0 
 -1.345461e-03  -2.419990e-03  0 
 -2.143645e-03  -3.113555e-03  0 
 -2.224353e-03  -3.387428e-03  0 
 -1.926719e-03  -3.677189e-03  0 
 -1.625310e-03  -3.679324e-03  0 
 -2.419548e-03  -4.465018e-03  0 
 -2.487272e-03  -5.157404e-03  0 
 -1.288290e-03  -1.962035e-03  0 
 -1.172431e-03  -2.042309e-03  0 
 -1.685339e-03  -2.458330e-03  0 
 -2.603712e-03  -3.210519e-03  0 
 -2.675431e-03  -3.463793e-03  0 
 -1.909193e-03  -2.800749e-03  0 
 -1.341397e-03  -2.979282e-03  0 
 -1.956763e-03  -3.195264e-03  0 
 -1.791890e-03  -2.755933e-03  0 
 -1.828941e-03  -2.933991e-03  0 
 -1.592885e-03  -2.781111e-03  0 
 -1.801491e-03  -3.429970e-03  0 
 -1.498960e-03  -3.499512e-03  0 
 -1.635314e-03  -3.161021e-03  0 
 -2.040734e-03  -3.455139e-03  0 
 -1.886528e-03  -4.125466e-03  0 
 -1.695901e-03  -4.177950e-03  0 
 -2.172933e-03  -4.774458e-03  0 
 -1.843149e-03  -4.684366e-03  0 
 -1.553888e-03  -4.514539e-03  0 
 -2.049819e-03  -5.360262e-03  0 
 -1.559168e-03  -5.002519e-03  0 
 -2.134743e-03  -4.155428e-03  0 
VECTORS displacement_ITER11 FLOAT
 -1.834113e-03  -2.795545e-03  0 
 -2.310746e-03  -3.700931e-03  0 
 -1.838982e-03  -2.688472e-03  0 
 -1.643223e-03  -2.543443e-03  0 
 -1.350318e-03  -2.421142e-03  0 
 -2.132293e-03  -3.108953e-03  0 
 -2.212639e-03  -3.377956e-03  0 
 -1.919711e-03  -3.662651e-03  0 
 -1.624669e-03  -3.662940e-03  0 
 -2.408705e-03  -4.453664e-03  0 
 -2.475211e-03  -5.154622e-03  0 
 -1.252015e-03  -1.938686e-03  0 
 -1.159431e-03  -2.013599e-03  0 
 -1.668071e-03  -2.459666e-03  0 
 -2.589844e-03  -3.201153e-03  0 
 -2.672465e-03  -3.450832e-03  0 
 -1.901773e-03  -2.801060e-03  0 
 -1.343134e-03  -2.979536e-03  0 
 -1.949292e-03  -3.188606e-03  0 
 -1.787963e-03  -2.756472e-03  0 
 -1.824787e-03  -2.931412e-03  0 
 -1.592288e-03  -2.780628e-03  0 
 -1.796469e-03  -3.419650e-03  0 
 -1.502398e-03  -3.487848e-03  0 
 -1.633846e-03  -3.156599e-03  0 
 -2.032079e-03  -3.444062e-03  0 
 -1.871856e-03  -4.133108e-03  0 
 -1.669876e-03  -4.230020e-03  0 
 -2.135796e-03  -4.771916e-03  0 
 -1.802894e-03  -4.700204e-03  0 
 -1.583580e-03  -4.539858e-03  0 
 -1.983275e-03  -5.287375e-03  0 
 -1.627519e-03  -4.925689e-03  0 
 -2.119048e-03  -4.144904e-03  0 
VECTORS displacement_ITER12 FLOAT
 -1.835183e-03  -2.794466e-03  0 
 -2.311853e-03  -3.699537e-03  0 
 -1.840384e-03  -2.687420e-03  0 
 -1.644758e-03  -2.542344e-03  0 
 -1.351455e-03  -2.420159e-03  0 
 -2.132871e-03  -3.109179e-03  0 
 -2.213636e-03  -3.377219e-03  0 
 -1.921400e-03  -3.661584e-03  0 
 -1.626507e-03  -3.662174e-03  0 
 -2.408940e-03  -4.450893e-03  0 
 -2.476212e-03  -5.152407e-03  0 
 -1.245298e-03  -1.934136e-03  0 
 -1.172299e-03  -2.008542e-03  0 
 -1.669614e-03  -2.464063e-03  0 
 -2.591402e-03  -3.196981e-03  0 
 -2.671022e-03  -3.449121e-03  0 
 -1.903259e-03  -2.800111e-03  0 
 -1.343946e-03  -2.978493e-03  0 
 -1.951297e-03  -3.188186e-03  0 
 -1.789441e-03  -2.755278e-03  0 
 -1.826302e-03  -2.929866e-03  0 
 -1.593925e-03  -2.779266e-03  0 
 -1.798409e-03  -3.419051e-03  0 
 -1.503871e-03  -3.487292e-03  0 
 -1.635298e-03  -3.155371e-03  0 
 -2.033716e-03  -3.443138e-03  0 
 -1.874548e-03  -4.130705e-03  0 
 -1.675827e-03  -4.222063e-03  0 
 -2.137950e-03  -4.768065e-03  0 
 -1.810969e-03  -4.694316e-03  0 
 -1.576598e-03  -4.530906e-03  0 
 -1.990648e-03  -5.284130e-03  0 
 -1.614702e-03  -4.943120e-03  0 
 -2.120529e-03  -4.143013e-03  0 
VECTORS displacement_ITER13 FLOAT
 -1.835004e-03  -2.794157e-03  0 
 -2.311554e-03  -3.699472e-03  0 
 -1.839947e-03  -2.687172e-03  0 
 -1.644291e-03  -2.542163e-03  0 
 -1.351204e-03  -2.420077e-03  0 
 -2.132588e-03  -3.108927e-03  0 
 -2.213341e-03  -3.377069e-03  0 
 -1.921026e-03  -3.661515e-03  0 
 -1.626053e-03  -3.662120e-03  0 
 -2.408721e-03  -4.451064e-03  0 
 -2.476117e-03  -5.152961e-03  0 
 -1.243291e-03  -1.931518e-03  0 
 -1.176074e-03  -2.012840e-03  0 
 -1.668649e-03  -2.463988e-03  0 
 -2.590191e-03  -3.198041e-03  0 
 -2.676238e-03  -3.450897e-03  0 
 -1.902844e-03  -2.799989e-03  0 
 -1.343491e-03  -2.978226e-03  0 
 -1.950932e-03  -3.188009e-03  0 
 -1.788982e-03  -2.755083e-03  0 
 -1.825893e-03  -2.929688e-03  0 
 -1.593463e-03  -2.779002e-03  0 
 -1.798000e-03  -3.418910e-03  0 
 -1.503374e-03  -3.487089e-03  0 
 -1.634863e-03  -3.155236e-03  0 
 -2.033367e-03  -3.443017e-03  0 
 -1.873948e-03  -4.131506e-03  0 
 -1.674905e-03  -4.223454e-03  0 
 -2.136740e-03  -4.768051e-03  0 
 -1.811356e-03  -4.693187e-03  0 
 -1.578998e-03  -4.529758e-03  0 
 -1.992009e-03  -5.282040e-03  0 
 -1.614086e-03  -4.942930e-03  0 
 -2.119967e-03  -4.143140e-03  0 
VECTORS displacement_ITER14 FLOAT
 -1.834978e-03  -2.794236e-03  0 
 -2.311531e-03  -3.699478e-03  0 
 -1.839992e-03  -2.687264e-03  0 
 -1.644336e-03  -2.542263e-03  0 
 -1.351210e-03  -2.420169e-03  0 
 -2.132582e-03  -3.108949e-03  0 
 -2.213322e-03  -3.377092e-03  0 
 -1.921027e-03  -3.661510e-03  0 
 -1.626096e-03  -3.662100e-03  0 
 -2.408703e-03  -4.451068e-03  0 
 -2.476101e-03  -5.152989e-03  0 
 -1.243200e-03  -1.930497e-03  0 
 -1.176039e-03  -2.013835e-03  0 
 -1.668656e-03  -2.463835e-03  0 
 -2.590015e-03  -3.198089e-03  0 
 -2.676461e-03  -3.450740e-03  0 
 -1.902883e-03  -2.800063e-03  0 
 -1.343567e-03  -2.978308e-03  0 
 -1.950920e-03  -3.188046e-03  0 
 -1.789021e-03  -2.755179e-03  0 
 -1.825918e-03  -2.929785e-03  0 
 -1.593509e-03  -2.779114e-03  0 
 -1.798013e-03  -3.418930e-03  0 
 -1.503456e-03  -3.487131e-03  0 
 -1.634913e-03  -3.155291e-03  0 
 -2.033355e-03  -3.443035e-03  0 
 -1.873906e-03  -4.131666e-03  0 
 -1.674770e-03  -4.223690e-03  0 
 -2.136473e-03  -4.768170e-03  0 
 -1.811421e-03  -4.693336e-03  0 
 -1.579655e-03  -4.530000e-03  0 
 -1.992061e-03  -5.281655e-03  0 
 -1.614723e-03  -4.942803e-03  0 
 -2.119901e-03  -4.143161e-03  0 
CELL_DATA 42
TENSORS element_stresses FLOAT
 -9.802522e-04  -1.047826e-03  0 
 -1.047826e-03  1.338090e-04  0 
 0  0  0 

 -9.019947e-04  -9.367139e-04  0 
 -9.367139e-04  2.177773e-04  0 
 0  0  0 

 -9.883021e-04  -5.702126e-04  0 
 -5.702126e-04  5.784531e-04  0 
 0  0  0 

 -9.524045e-04  -4.333395e-04  0 
 -4.333395e-04  2.942839e-04  0 
 0  0  0 

 -9.938303e-04  -7.103291e-04  0 
 -7.103291e-04  5.741932e-04  0 
 0  0  0 

 -4.664469e-04  9.954701e-04  0 
 9.954701e-04  -4.782889e-04  0 
 0  0  0 

 -5.096457e-04  1.170115e-03  0 
 1.170115e-03  -3.893666e-04  0 
 0  0  0 

 -8.700265e-04  1.051310e-03  0 
 1.051310e-03  -4.801596e-04  0 
 0  0  0 

 -6.991571e-02  2.052900e-02  0 
 2.052900e-02  5.590306e-01  0 
 0  0  0 

 -2.711329e-01  -2.439516e-02  0 
 -2.439516e-02  1.727579e-01  0 
 0  0  0 

 -7.298289e-02  -2.053901e-01  0 
 -2.053901e-01  5.046868e-02  0 
 0  0  0 

 -8.123129e-02  1.005052e-01  0 
 1.005052e-01  1.286929e-01  0 
 0  0  0 

 -1.814017e-01  -3.210850e-01  0 
 -3.210850e-01  3.734641e-01  0 
 0  0  0 

 -6.488709e-02  -6.722510e-02  0 
 -6.722510e-02  1.427076e-01  0 
 0  0  0 

 -3.323764e-02  8.344722e-03  0 
 8.344722e-03  4.784044e-01  0 
 0  0  0 

 1.067397e-03  5.769578e-02  0 
 5.769578e-02  1.146394e-01  0 
 0  0  0 

 -1.471792e-03  -7.274175e-02  0 
 -7.274175e-02  -2.800388e-03  0 
 0  0  0 

 3.514323e-02  -4.591235e-02  0 
 -4.591235e-02  -2.019083e-01  0 
 0  0  0 

 -5.945360e-02  8.752924e-03  0 
 8.752924e-03  1.897126e-01  0 
 0  0  0 

 -1.038333e-01  1.102791e-01  0 
 1.102791e-01  1.207198e-01  0 
 0  0  0 

 -3.391037e-01  1.536188e-02  0 
 1.536188e-02  1.791066e-01  0 
 0  0  0 

 1.464316e-02  -5.201196e-02  0 
 -5.201196e-02  -5.610803e-02  0 
 0  0  0 

 -1.288613e-01  6.418541e-03  0 
 6.418541e-03  -8.553244e-02  0 
 0  0  0 

 -3.859664e-02  -8.665515e-02  0 
 -8.665515e-02  -1.379903e-01  0 
 0  0  0 

 1.504163e-02  -1.015576e-01  0 
 -1.015576e-01  -1.280568e-01  0 
 0  0  0 

 2.063425e-02  -1.116755e-01  0 
 -1.116755e-01  -2.037779e-01  0 
 0  0  0 

 6.836091e-03  -1.522068e-01  0 
 -1.522068e-01  -6.446048e-02  0 
 0  0  0 

 4.749503e-02  -1.111788e-02  0 
 -1.111788e-02  -2.296083e-02  0 
 0  0  0 

 -2.500533e-04  -1.120387e-03  0 
 -1.120387e-03  -7.737483e-05  0 
 0  0  0 

 -1.916050e-04  -1.004289e-03  0 
 -1.004289e-03  8.242518e-05  0 
 0  0  0 

 -3.229304e-04  -9.896772e-04  0 
 -9.896772e-04  4.649541e-05  0 
 0  0  0 

 -1.668256e-04  -9.869949e-04  0 
 -9.869949e-04  3.425559e-04  0 
 0  0  0 

 -3.044392e-04  -9.854063e-04  0 
 -9.854063e-04  4.246780e-04  0 
 0  0  0 

 -2.532874e-04  -8.851371e-04  0 
 -8.851371e-04  1.632093e-04  0 
 0  0  0 

 -2.941649e-04  -9.911713e-04  0 
 -9.911713e-04  6.362028e-05  0 
 0  0  0 

 -3.229270e-04  -1.049880e-03  0 
 -1.049880e-03  2.192083e-04  0 
 0  0  0 

 -2.907099e-04  -9.805342e-04  0 
 -9.805342e-04  2.159051e-04  0 
 0  0  0 

 -3.216870e-04  -9.293031e-04  0 
 -9.293031e-04  3.146918e-04  0 
 0  0  0 

 -3.246519e-04  -1.016214e-03  0 
 -1.016214e-03  2.098987e-04  0 
 0  0  0 

 -2.439747e-04  -7.162822e-04  0 
 -7.162822e-04  2.345854e-04  0 
 0  0  0 

 -3.713887e-04  -8.422429e-04  0 
 -8.422429e-04  4.217506e-04  0 
 0  0  0 

 -3.902924e-04  -8.785451e-04  0 
 -8.785451e-04  3.891224e-04  0 
 0  0  0 

TENSORS element_stresses FLOAT
 -9.802522e-04  -1.047826e-03  0 
 -1.047826e-03  1.338090e-04  0 
 0  0  0 

 -9.019947e-04  -9.367139e-04  0 
 -9.367139e-04  2.177773e-04  0 
 0  0  0 

 -9.883021e-04  -5.702126e-04  0 
 -5.702126e-04  5.784531e-04  0 
 0  0  0 

 -9.524045e-04  -4.333395e-04  0 
 -4.333395e-04  2.942839e-04  0 
 0  0  0 

 -9.938303e-04  -7.103291e-04  0 
 -7.103291e-04  5.741932e-04  0 
 0  0  0 

 -4.664469e-04  9.954701e-04  0 
 9.954701e-04  -4.782889e-04  0 
 0  0  0 

 -5.096457e-04  1.170115e-03  0 
 1.170115e-03  -3.893666e-04  0 
 0  0  0 

 -8.700265e-04  1.051310e-03  0 
 1.051310e-03  -4.801596e-04  0 
 0  0  0 

 -6.991571e-02  2.052900e-02  0 
 2.052900e-02  5.590306e-01  0 
 0  0  0 

 -2.711329e-01  -2.439516e-02  0 
 -2.439516e-02  1.727579e-01  0 
 0  0  0 

 -7.298289e-02  -2.053901e-01  0 
 -2.053901e-01  5.046868e-02  0 
 0  0  0 

 -8.123129e-02  1.005052e-01  0 
 1.005052e-01  1.286929e-01  0 
 0  0  0 

 -1.814017e-01  -3.210850e-01  0 
 -3.210850e-01  3.734641e-01  0 
 0  0  0 

 -6.488709e-02  -6.722510e-02  0 
 -6.722510e-02  1.427076e-01  0 
 0  0  0 

 -3.323764e-02  8.344722e-03  0 
 8.344722e-03  4.784044e-01  0 
 0  0  0 

 1.067397e-03  5.769578e-02  0 
 5.769578e-02  1.146394e-01  0 
 0  0  0 

 -1.471792e-03  -7.274175e-02  0 
 -7.274175e-02  -2.800388e-03  0 
 0  0  0 

 3.514323e-02  -4.591235e-02  0 
 -4.591235e-02  -2.019083e-01  0 
 0  0  0 

 -5.945360e-02  8.752924e-03  0 
 8.752924e-03  1.897126e-01  0 
 0  0  0 

 -1.038333e-01  1.102791e-01  0 
 1.102791e-01  1.207198e-01  0 
 0  0  0 

 -3.391037e-01  1.536188e-02  0 
 1.536188e-02  1.791066e-01  0 
 0  0  0 

 1.464316e-02  -5.201196e-02  0 
 -5.201196e-02  -5.610803e-02  0 
 0  0  0 

 -1.288613e-01  6.418541e-03  0 
 6.418541e-03  -8.553244e-02  0 
 0  0  0 

 -3.859664e-02  -8.665515e-02  0 
 -8.665515e-02  -1.379903e-01  0 
 0  0  0 

 1.504163e-02  -1.015576e-01  0 
 -1.015576e-01  -1.280568e-01  0 
 0  0  0 

 2.063425e-02  -1.116755e-01  0 
 -1.116755e-01  -2.037779e-01  0 
 0  0  0 

 6.836091e-03  -1.522068e-01  0 
 -1.522068e-01  -6.446048e-02  0 
 0  0  0 

 4.749503e-02  -1.111788e-02  0 
 -1.111788e-02  -2.296083e-02  0 
 0  0  0 

 -2.500533e-04  -1.120387e-03  0 
 -1.120387e-03  -7.737483e-05  0 
 0  0  0 

 -1.916050e-04  -1.004289e-03  0 
 -1.004289e-03  8.242518e-05  0 
 0  0  0 

 -3.229304e-04  -9.896772e-04  0 
 -9.896772e-04  4.649541e-05  0 
 0  0  0 

 -1.668256e-04  -9.869949e-04  0 
 -9.869949e-04  3.425559e-04  0 
 0  0  0 

 -3.044392e-04  -9.854063e-04  0 
 -9.854063e-04  4.246780e-04  0 
 0  0  0 

 -2.532874e-04  -8.851371e-04  0 
 -8.851371e-04  1.632093e-04  0 
 0  0  0 

 -2.941649e-04  -9.911713e-04  0 
 -9.911713e-04  6.362028e-05  0 
 0  0  0 

 -3.229270e-04  -1.049880e-03  0 
 -1.049880e-03  2.192083e-04  0 
 0  0  0 

 -2.907099e-04  -9.805342e-04  0 
 -9.805342e-04  2.159051e-04  0 
 0  0  0 

 -3.216870e-04  -9.293031e-04  0 
 -9.293031e-04  3.146918e-04  0 
 0  0  0 

 -3.246519e-04  -1.016214e-03  0 
 -1.016214e-03  2.098987e-04  0 
 0  0  0 

 -2.439747e-04  -7.162822e-04  0 
 -7.162822e-04  2.345854e-04  0 
 0  0  0 

 -3.713887e-04  -8.422429e-04  0 
 -8.422429e-04  4.217506e-04  0 
 0  0  0 

 -3.902924e-04  -8.785451e-04  0 
 -8.785451e-04  3.891224e-04  0 
 0  0  0 

