# vtk DataFile Version 3.1
this is an vtk file created by FEMAC
ASCII
DATASET UNSTRUCTURED_GRID
POINTS 31 FLOAT
2.000000 4.000000 0.000000
3.000000 4.000000 0.000000
1.500000 4.000000 0.000000
1.750000 4.000000 0.000000
2.000000 3.250000 0.000000
2.000000 3.500000 0.000000
2.000000 3.750000 0.000000
2.250000 4.000000 0.000000
2.500000 4.000000 0.000000
2.750000 4.000000 0.000000
1.805000 3.255000 0.000000
1.824607 3.643596 0.000000
1.681647 3.425464 0.000000
1.631588 3.748141 0.000000
1.841239 3.828347 0.000000
1.613228 4.205045 0.000000
1.837660 4.158674 0.000000
2.808904 3.785023 0.000000
2.769602 3.187596 0.000000
2.410643 3.818050 0.000000
2.626359 3.825025 0.000000
2.275508 3.443567 0.000000
2.567037 3.328363 0.000000
2.549450 3.615319 0.000000
2.182184 3.732871 0.000000
2.818560 3.488721 0.000000
2.354447 3.652452 0.000000
2.255000 4.195000 0.000000
2.661595 4.194695 0.000000
2.413341 4.323754 0.000000
2.845050 4.155217 0.000000
CELLS 42 168 
3 5 10  4
3 6 11  5
3 5 12 10
3 5 11 12
3 12 11 13
3 3 14  0
3 14  6  0
3 14 11  6
3 2 13  3
3 14  3 13
3 13 11 14
3 3 15  2
3 16  3  0
3 16 15  3
3 7 19  8
3 20  9  8
3 20 23 17
3 20 17  9
3 17  1  9
3 6 24  0
3 24  7  0
3 24 19  7
3 20  8 19
3 20 19 23
3 21 22 23
3 23 25 17
3 21  5  4
3 25 22 18
3 25 23 22
3 26 21 23
3 19 26 23
3 5 24  6
3 21 24  5
3 26 19 24
3 21 26 24
3 8 27  7
3 9 28  8
3 8 29 27
3 8 28 29
3 0  7 27
3 30  9  1
3 30 28  9
CELL_TYPES 42
5 5 5 5 5 5 5 5 5 5 5 5 5 5 5 5 5 5 5 5 5 5 5 5 5 5 5 5 5 5 5 5 5 5 5 5 5 5 5 5 5 5 
POINT_DATA 31
VECTORS displacement_ITER1 FLOAT
 2.405039e-02  -4.414117e-02  0 
 2.418029e-02  -1.515654e-01  0 
 2.398924e-02  -2.783797e-02  0 
 2.401367e-02  -3.596515e-02  0 
 -4.455262e-04  -4.410517e-02  0 
 7.712186e-03  -4.412192e-02  0 
 1.586658e-02  -4.413123e-02  0 
 2.409813e-02  -7.102722e-02  0 
 2.413898e-02  -9.789780e-02  0 
 2.416054e-02  -1.247229e-01  0 
 -2.861942e-04  -3.773141e-02  0 
 1.239457e-02  -3.839366e-02  0 
 5.269705e-03  -3.371303e-02  0 
 1.580673e-02  -3.208824e-02  0 
 1.842558e-02  -3.893253e-02  0 
 4.973777e-03  -3.088488e-02  0 
 1.251220e-02  -3.321323e-02  0 
 2.017368e-02  -1.235274e-01  0 
 4.584599e-02  -9.385451e-02  0 
 1.842214e-02  -8.816953e-02  0 
 1.901788e-02  -1.095536e-01  0 
 8.226102e-03  -7.302704e-02  0 
 2.255819e-02  -9.829548e-02  0 
 1.453273e-02  -1.009557e-01  0 
 1.567642e-02  -6.422283e-02  0 
 2.193224e-02  -1.079556e-01  0 
 1.425574e-02  -8.179501e-02  0 
 4.505739e-02  -7.160235e-02  0 
 4.503895e-02  -1.152536e-01  0 
 5.887657e-02  -8.860562e-02  0 
 4.081898e-02  -1.349391e-01  0 
VECTORS displacement_ITER2 FLOAT
 3.776226e-02  -4.350576e-02  0 
 3.787039e-02  -1.162955e-01  0 
 3.771104e-02  -3.679069e-02  0 
 3.772973e-02  -4.012133e-02  0 
 2.773382e-02  -4.343178e-02  0 
 3.106491e-02  -4.344232e-02  0 
 3.439506e-02  -4.346836e-02  0 
 3.779844e-02  -6.175027e-02  0 
 3.783917e-02  -7.995440e-02  0 
 3.785662e-02  -9.811116e-02  0 
 2.780131e-02  -4.081579e-02  0 
 3.297022e-02  -4.110745e-02  0 
 3.006014e-02  -3.918505e-02  0 
 3.436203e-02  -3.852516e-02  0 
 3.543798e-02  -4.133631e-02  0 
 1.919728e-02  -3.716911e-02  0 
 2.640673e-02  -3.704267e-02  0 
 3.632367e-02  -1.005653e-01  0 
 4.731684e-02  -9.965185e-02  0 
 3.615010e-02  -7.447822e-02  0 
 3.600222e-02  -8.961478e-02  0 
 3.139950e-02  -6.455621e-02  0 
 3.759428e-02  -9.023317e-02  0 
 3.475776e-02  -8.614793e-02  0 
 3.485775e-02  -5.759855e-02  0 
 3.639668e-02  -9.892239e-02  0 
 3.450220e-02  -7.077668e-02  0 
 5.199722e-02  -6.215186e-02  0 
 5.198505e-02  -9.170318e-02  0 
 6.134251e-02  -7.366388e-02  0 
 4.913535e-02  -1.050289e-01  0 
VECTORS displacement_ITER3 FLOAT
 2.431221e-02  -3.471821e-02  0 
 2.445498e-02  -6.366833e-02  0 
 2.427024e-02  -2.639563e-02  0 
 2.428016e-02  -3.052533e-02  0 
 1.204301e-02  -3.456133e-02  0 
 1.609826e-02  -3.456918e-02  0 
 2.017367e-02  -3.462755e-02  0 
 2.434341e-02  -4.205386e-02  0 
 2.439989e-02  -4.930064e-02  0 
 2.442816e-02  -5.646506e-02  0 
 1.212549e-02  -3.137719e-02  0 
 1.841900e-02  -3.172891e-02  0 
 1.487462e-02  -2.938923e-02  0 
 2.011719e-02  -2.856678e-02  0 
 2.144442e-02  -3.202592e-02  0 
 1.562847e-02  -2.512523e-02  0 
 1.948876e-02  -2.946301e-02  0 
 2.196178e-02  -6.370443e-02  0 
 1.627775e-02  -8.161508e-02  0 
 2.336767e-02  -4.927780e-02  0 
 2.314009e-02  -5.623337e-02  0 
 1.773651e-02  -4.523686e-02  0 
 1.813343e-02  -6.440212e-02  0 
 2.171784e-02  -5.802491e-02  0 
 2.141418e-02  -4.191269e-02  0 
 1.851212e-02  -7.291635e-02  0 
 2.145823e-02  -4.855589e-02  0 
 3.000040e-02  -4.224899e-02  0 
 2.999485e-02  -5.394943e-02  0 
 3.367874e-02  -4.680979e-02  0 
 2.888987e-02  -5.920794e-02  0 
VECTORS displacement_ITER4 FLOAT
 2.278611e-02  -3.817925e-02  0 
 2.295663e-02  -5.307015e-02  0 
 2.274919e-02  -2.266982e-02  0 
 2.275419e-02  -3.039049e-02  0 
 -1.763866e-04  -3.798167e-02  0 
 7.429967e-03  -3.798904e-02  0 
 1.506960e-02  -3.806217e-02  0 
 2.281670e-02  -4.203078e-02  0 
 2.288325e-02  -4.576791e-02  0 
 2.291973e-02  -4.939817e-02  0 
 -2.399404e-05  -3.202893e-02  0 
 1.179196e-02  -3.265662e-02  0 
 5.146926e-03  -2.828592e-02  0 
 1.497845e-02  -2.674005e-02  0 
 1.745484e-02  -3.319904e-02  0 
 2.134585e-02  -2.189882e-02  0 
 2.301216e-02  -3.119396e-02  0 
 1.832867e-02  -5.831115e-02  0 
 3.943228e-03  -7.566894e-02  0 
 1.988872e-02  -4.742897e-02  0 
 2.012458e-02  -5.172580e-02  0 
 9.803129e-03  -4.471819e-02  0 
 9.077540e-03  -5.879717e-02  0 
 1.631580e-02  -5.442063e-02  0 
 1.646011e-02  -4.330191e-02  0 
 1.192243e-02  -6.870357e-02  0 
 1.607019e-02  -4.738398e-02  0 
 2.574014e-02  -4.216406e-02  0 
 2.573371e-02  -4.813685e-02  0 
 2.759773e-02  -4.449420e-02  0 
 2.519129e-02  -5.080062e-02  0 
VECTORS displacement_ITER5 FLOAT
 2.980092e-02  -2.321779e-02  0 
 3.000705e-02  -2.339285e-02  0 
 2.976187e-02  -6.309570e-03  0 
 2.976526e-02  -1.472393e-02  0 
 4.807693e-03  -2.298463e-02  0 
 1.308053e-02  -2.298663e-02  0 
 2.139443e-02  -2.307424e-02  0 
 2.983534e-02  -2.342248e-02  0 
 2.991432e-02  -2.348846e-02  0 
 2.995939e-02  -2.341873e-02  0 
 4.976673e-03  -1.650918e-02  0 
 1.782476e-02  -1.718859e-02  0 
 1.059961e-02  -1.243710e-02  0 
 2.129152e-02  -1.074948e-02  0 
 2.398914e-02  -1.778345e-02  0 
 3.115591e-02  -5.474428e-03  0 
 3.202125e-02  -1.588611e-02  0 
 2.508825e-02  -3.222093e-02  0 
 1.870698e-03  -4.961756e-02  0 
 2.637786e-02  -2.615784e-02  0 
 2.693945e-02  -2.754845e-02  0 
 1.498505e-02  -2.507813e-02  0 
 1.149860e-02  -3.343403e-02  0 
 2.207357e-02  -3.048915e-02  0 
 2.261092e-02  -2.535744e-02  0 
 1.640215e-02  -4.346872e-02  0 
 2.192745e-02  -2.669189e-02  0 
 2.989973e-02  -2.349399e-02  0 
 2.989123e-02  -2.347120e-02  0 
 2.985155e-02  -2.348895e-02  0 
 2.993700e-02  -2.341847e-02  0 
VECTORS displacement_ITER6 FLOAT
 1.952758e-02  -2.308326e-02  0 
 1.982150e-02  -1.411488e-02  0 
 1.946421e-02  -1.000605e-02  0 
 1.947497e-02  -1.649591e-02  0 
 3.132742e-04  -2.280985e-02  0 
 6.644228e-03  -2.281139e-02  0 
 1.302614e-02  -2.291649e-02  0 
 1.958415e-02  -2.103549e-02  0 
 1.968717e-02  -1.883306e-02  0 
 1.975064e-02  -1.645230e-02  0 
 4.457277e-04  -1.784368e-02  0 
 1.027347e-02  -1.837588e-02  0 
 4.740740e-03  -1.473197e-02  0 
 1.293110e-02  -1.342680e-02  0 
 1.501647e-02  -1.884781e-02  0 
 1.930038e-02  -8.206584e-03  0 
 2.026530e-02  -1.630286e-02  0 
 1.575538e-02  -2.276468e-02  0 
 -1.480299e-03  -3.252019e-02  0 
 1.675613e-02  -2.142919e-02  0 
 1.728247e-02  -2.055533e-02  0 
 8.086210e-03  -2.198053e-02  0 
 5.394057e-03  -2.389952e-02  0 
 1.327156e-02  -2.300931e-02  0 
 1.388089e-02  -2.295807e-02  0 
 9.245729e-03  -3.020792e-02  0 
 1.325119e-02  -2.227282e-02  0 
 1.788568e-02  -2.108394e-02  0 
 1.787906e-02  -1.733482e-02  0 
 1.665467e-02  -1.962951e-02  0 
 1.829778e-02  -1.558381e-02  0 
VECTORS displacement_ITER7 FLOAT
 1.812938e-02  -2.042644e-02  0 
 1.849213e-02  -1.159082e-02  0 
 1.804351e-02  -1.235855e-02  0 
 1.806118e-02  -1.633607e-02  0 
 6.449553e-03  -2.012227e-02  0 
 1.025319e-02  -2.012533e-02  0 
 1.411957e-02  -2.024463e-02  0 
 1.820624e-02  -1.843497e-02  0 
 1.832829e-02  -1.628015e-02  0 
 1.840501e-02  -1.391418e-02  0 
 6.533295e-03  -1.712297e-02  0 
 1.243384e-02  -1.745991e-02  0 
 9.102598e-03  -1.525888e-02  0 
 1.403995e-02  -1.445076e-02  0 
 1.532397e-02  -1.776719e-02  0 
 1.435199e-02  -9.230761e-03  0 
 1.593715e-02  -1.423637e-02  0 
 1.595264e-02  -1.672199e-02  0 
 5.708053e-03  -1.669730e-02  0 
 1.616047e-02  -1.754184e-02  0 
 1.670945e-02  -1.621045e-02  0 
 1.072623e-02  -1.814721e-02  0 
 9.063960e-03  -1.554260e-02  0 
 1.377419e-02  -1.690382e-02  0 
 1.440167e-02  -1.930628e-02  0 
 1.192758e-02  -1.888154e-02  0 
 1.382863e-02  -1.794478e-02  0 
 1.654987e-02  -1.850295e-02  0 
 1.654235e-02  -1.480135e-02  0 
 1.533290e-02  -1.706853e-02  0 
 1.696383e-02  -1.305951e-02  0 
VECTORS displacement_ITER8 FLOAT
 1.653866e-02  -1.342719e-02  0 
 1.692410e-02  -1.353311e-02  0 
 1.644546e-02  -4.311868e-03  0 
 1.646511e-02  -8.810914e-03  0 
 3.293938e-03  -1.311468e-02  0 
 7.611183e-03  -1.311980e-02  0 
 1.199904e-02  -1.324276e-02  0 
 1.662282e-02  -1.367624e-02  0 
 1.675076e-02  -1.376118e-02  0 
 1.683151e-02  -1.362557e-02  0 
 3.387630e-03  -9.715052e-03  0 
 1.009075e-02  -1.008970e-02  0 
 6.308378e-03  -7.594480e-03  0 
 1.191575e-02  -6.676927e-03  0 
 1.336847e-02  -1.043137e-02  0 
 1.226565e-02  -1.208763e-03  0 
 1.383944e-02  -6.365946e-03  0 
 1.396785e-02  -1.443875e-02  0 
 4.328536e-03  -6.139195e-03  0 
 1.359027e-02  -1.331801e-02  0 
 1.434588e-02  -1.355548e-02  0 
 7.232550e-03  -1.249895e-02  0 
 5.971563e-03  -8.825165e-03  0 
 1.044691e-02  -1.215958e-02  0 
 1.177750e-02  -1.327099e-02  0 
 9.530899e-03  -1.245817e-02  0 
 1.070576e-02  -1.282001e-02  0 
 1.671515e-02  -1.379521e-02  0 
 1.670511e-02  -1.372760e-02  0 
 1.664935e-02  -1.377666e-02  0 
 1.677601e-02  -1.362253e-02  0 
VECTORS displacement_ITER9 FLOAT
 1.227999e-02  -1.177936e-02  0 
 1.271153e-02  -1.691329e-02  0 
 1.217197e-02  -2.325811e-03  0 
 1.219584e-02  -6.991082e-03  0 
 -1.450381e-03  -1.143970e-02  0 
 3.011463e-03  -1.145372e-02  0 
 7.561383e-03  -1.158702e-02  0 
 1.237705e-02  -1.329537e-02  0 
 1.251616e-02  -1.464571e-02  0 
 1.260624e-02  -1.575831e-02  0 
 -1.357731e-03  -7.929598e-03  0 
 5.581171e-03  -8.314398e-03  0 
 1.664418e-03  -5.733424e-03  0 
 7.474311e-03  -4.774921e-03  0 
 8.983773e-03  -8.668312e-03  0 
 8.215355e-03  9.350211e-04  0 
 9.426435e-03  -4.400721e-03  0 
 9.761816e-03  -1.414602e-02  0 
 6.617814e-03  5.093487e-03  0 
 8.692999e-03  -1.292185e-02  0 
 9.656838e-03  -1.374432e-02  0 
 2.563049e-03  -1.124494e-02  0 
 3.808985e-03  -4.435210e-03  0 
 5.488941e-03  -1.058310e-02  0 
 6.966842e-03  -1.209467e-02  0 
 6.932587e-03  -6.530800e-03  0 
 5.746995e-03  -1.174943e-02  0 
 1.345937e-02  -1.345013e-02  0 
 1.344982e-02  -1.542603e-02  0 
 1.404160e-02  -1.422850e-02  0 
 1.332779e-02  -1.623649e-02  0 
VECTORS displacement_ITER10 FLOAT
 8.514192e-03  -1.048160e-02  0 
 8.961210e-03  -1.392700e-02  0 
 8.392193e-03  -6.266844e-03  0 
 8.420714e-03  -8.309991e-03  0 
 2.666106e-03  -1.011183e-02  0 
 4.486563e-03  -1.013243e-02  0 
 6.408647e-03  -1.027901e-02  0 
 8.617869e-03  -1.157796e-02  0 
 8.761609e-03  -1.250873e-02  0 
 8.853566e-03  -1.319656e-02  0 
 2.704574e-03  -8.660085e-03  0 
 5.543057e-03  -8.842519e-03  0 
 3.925088e-03  -7.767470e-03  0 
 6.336501e-03  -7.331402e-03  0 
 7.008393e-03  -9.025669e-03  0 
 3.419573e-03  -2.204118e-03  0 
 4.690656e-03  -5.287214e-03  0 
 7.236368e-03  -1.120986e-02  0 
 3.097471e-03  1.970179e-03  0 
 6.472463e-03  -1.075565e-02  0 
 7.065053e-03  -1.128507e-02  0 
 3.309375e-03  -9.666874e-03  0 
 2.547766e-03  -4.659433e-03  0 
 4.390039e-03  -8.590469e-03  0 
 5.748152e-03  -1.012805e-02  0 
 4.787918e-03  -5.837901e-03  0 
 4.778981e-03  -9.807663e-03  0 
 9.373674e-03  -1.172909e-02  0 
 9.365267e-03  -1.301584e-02  0 
 9.737508e-03  -1.223886e-02  0 
 9.311389e-03  -1.351464e-02  0 
VECTORS displacement_ITER11 FLOAT
 7.172214e-03  -5.739750e-03  0 
 7.610843e-03  -7.134167e-03  0 
 7.046733e-03  -2.961750e-03  0 
 7.076556e-03  -4.286728e-03  0 
 3.494672e-03  -5.354479e-03  0 
 4.584803e-03  -5.379946e-03  0 
 5.784658e-03  -5.532808e-03  0 
 7.274195e-03  -6.317268e-03  0 
 7.415532e-03  -6.731469e-03  0 
 7.504977e-03  -6.909805e-03  0 
 3.516510e-03  -4.472926e-03  0 
 5.224466e-03  -4.600086e-03  0 
 4.239936e-03  -3.940050e-03  0 
 5.715081e-03  -3.646941e-03  0 
 6.157874e-03  -4.737822e-03  0 
 3.020542e-03  7.660200e-04  0 
 4.049243e-03  -1.835761e-03  0 
 5.749124e-03  -5.998405e-03  0 
 -2.820060e-03  -2.873664e-04  0 
 5.680384e-03  -5.424407e-03  0 
 5.979450e-03  -5.773299e-03  0 
 3.057565e-03  -4.826324e-03  0 
 -3.873886e-05  -2.333435e-03  0 
 3.656242e-03  -4.013974e-03  0 
 5.201400e-03  -5.042424e-03  0 
 2.181066e-03  -4.155217e-03  0 
 4.238738e-03  -4.810959e-03  0 
 7.626413e-03  -6.455866e-03  0 
 7.619705e-03  -6.907332e-03  0 
 7.725463e-03  -6.639235e-03  0 
 7.646643e-03  -7.033937e-03  0 
VECTORS displacement_ITER12 FLOAT
 7.801143e-03  -2.955756e-03  0 
 8.230228e-03  -1.495530e-03  0 
 7.674003e-03  1.685413e-03  0 
 7.704688e-03  -5.716807e-04  0 
 1.344489e-03  -2.554200e-03  0 
 3.355255e-03  -2.586874e-03  0 
 5.483586e-03  -2.744281e-03  0 
 7.899798e-03  -2.818160e-03  0 
 8.038409e-03  -2.516831e-03  0 
 8.125871e-03  -1.983246e-03  0 
 1.380191e-03  -9.581003e-04  0 
 4.526346e-03  -1.158555e-03  0 
 2.734089e-03  3.094688e-05  0 
 5.403894e-03  5.106678e-04  0 
 6.146756e-03  -1.360812e-03  0 
 5.999658e-03  4.189955e-03  0 
 6.448544e-03  7.444368e-04  0 
 5.769275e-03  -2.511016e-03  0 
 -3.838602e-03  9.813515e-05  0 
 6.091955e-03  -2.043669e-03  0 
 6.368827e-03  -1.971743e-03  0 
 2.455562e-03  -1.754201e-03  0 
 -5.082122e-04  -6.165586e-05  0 
 3.812601e-03  -1.184307e-03  0 
 5.181451e-03  -2.219240e-03  0 
 1.837998e-03  -2.511480e-03  0 
 4.307349e-03  -1.761246e-03  0 
 7.693937e-03  -2.939553e-03  0 
 7.686517e-03  -2.230358e-03  0 
 7.424546e-03  -2.668760e-03  0 
 7.825163e-03  -1.835196e-03  0 
VECTORS displacement_ITER13 FLOAT
 5.071639e-03  -4.794438e-03  0 
 5.494120e-03  1.912646e-03  0 
 4.937730e-03  -1.180840e-03  0 
 4.971499e-03  -2.922659e-03  0 
 1.749976e-04  -4.366508e-03  0 
 1.660374e-03  -4.407304e-03  0 
 3.268630e-03  -4.573608e-03  0 
 5.168622e-03  -3.350301e-03  0 
 5.306422e-03  -1.738351e-03  0 
 5.392125e-03  1.082353e-04  0 
 1.960636e-04  -3.180544e-03  0 
 2.529414e-03  -3.348026e-03  0 
 1.191607e-03  -2.453368e-03  0 
 3.187374e-03  -2.080634e-03  0 
 3.767461e-03  -3.520552e-03  0 
 4.206864e-03  4.658995e-04  0 
 4.347793e-03  -2.116449e-03  0 
 3.539610e-03  -1.399345e-03  0 
 -2.308646e-03  -2.826502e-03  0 
 4.171560e-03  -2.417835e-03  0 
 4.279227e-03  -1.308506e-03  0 
 1.780083e-03  -3.225121e-03  0 
 9.561064e-05  -2.027472e-03  0 
 2.753454e-03  -1.990496e-03  0 
 3.401623e-03  -3.730289e-03  0 
 1.089012e-03  -3.105960e-03  0 
 3.016661e-03  -2.776860e-03  0 
 3.941112e-03  -3.444694e-03  0 
 3.931007e-03  -6.009502e-04  0 
 2.994049e-03  -2.340157e-03  0 
 4.274892e-03  7.582154e-04  0 
VECTORS displacement_ITER14 FLOAT
 3.693851e-03  -3.195487e-04  0 
 4.105943e-03  3.759771e-03  0 
 3.558844e-03  4.459300e-03  0 
 3.594136e-03  2.134900e-03  0 
 -2.968225e-03  1.045480e-04  0 
 -8.893088e-04  6.262520e-05  0 
 1.307071e-03  -1.012403e-04  0 
 3.788260e-03  4.733928e-04  0 
 3.922910e-03  1.431869e-03  0 
 4.006044e-03  2.618171e-03  0 
 -2.935981e-03  1.753200e-03  0 
 3.182891e-04  1.535693e-03  0 
 -1.536088e-03  2.770774e-03  0 
 1.221686e-03  3.255893e-03  0 
 1.989574e-03  1.324217e-03  0 
 2.552413e-03  4.821076e-03  0 
 3.047410e-03  2.473170e-03  0 
 1.608514e-03  7.310991e-04  0 
 -3.774155e-03  -1.376782e-03  0 
 2.471259e-03  7.567386e-04  0 
 2.510326e-03  1.322806e-03  0 
 -6.021601e-04  3.696138e-05  0 
 -1.877675e-03  -6.464572e-05  0 
 7.076071e-04  4.437241e-04  0 
 1.526862e-03  3.419881e-05  0 
 -1.046758e-03  -1.221772e-03  0 
 1.030589e-03  3.882387e-04  0 
 3.069846e-03  3.688528e-04  0 
 3.059570e-03  2.144257e-03  0 
 2.461462e-03  1.058145e-03  0 
 3.298907e-03  3.017410e-03  0 
VECTORS displacement_ITER15 FLOAT
 3.110709e-03  -1.952804e-03  0 
 3.530443e-03  -1.270468e-05  0 
 2.961687e-03  9.213366e-04  0 
 3.003137e-03  -4.479784e-04  0 
 -7.047168e-04  -1.517101e-03  0 
 4.204995e-04  -1.563150e-03  0 
 1.666803e-03  -1.731837e-03  0 
 3.211670e-03  -1.693862e-03  0 
 3.349473e-03  -1.271745e-03  0 
 3.432538e-03  -6.186319e-04  0 
 -6.929725e-04  -6.112078e-04  0 
 1.081028e-03  -7.582336e-04  0 
 5.611396e-05  -6.565606e-05  0 
 1.586678e-03  2.283142e-04  0 
 2.052353e-03  -9.074878e-04  0 
 3.501190e-04  5.402722e-04  0 
 1.325018e-03  1.897959e-04  0 
 1.924960e-03  -1.527467e-03  0 
 2.125274e-03  -6.623857e-04  0 
 2.435127e-03  -1.592786e-03  0 
 2.454964e-03  -1.267508e-03  0 
 8.297334e-04  -2.169828e-03  0 
 1.232214e-03  -1.850166e-03  0 
 1.457975e-03  -1.793368e-03  0 
 1.884046e-03  -1.912110e-03  0 
 1.103192e-03  -1.642581e-03  0 
 1.626917e-03  -1.820740e-03  0 
 2.913474e-03  -1.812622e-03  0 
 2.902543e-03  -9.040190e-04  0 
 2.581480e-03  -1.460404e-03  0 
 3.057262e-03  -4.223613e-04  0 
VECTORS displacement_ITER16 FLOAT
 3.110644e-03  -1.625647e-03  0 
 3.522047e-03  -2.530148e-03  0 
 2.952685e-03  5.195242e-04  0 
 2.998525e-03  -4.848170e-04  0 
 3.692564e-04  -1.190867e-03  0 
 1.135563e-03  -1.237420e-03  0 
 2.023224e-03  -1.406918e-03  0 
 3.214231e-03  -2.063095e-03  0 
 3.350131e-03  -2.345905e-03  0 
 3.429353e-03  -2.408505e-03  0 
 3.741364e-04  -5.638633e-04  0 
 1.590018e-03  -6.843467e-04  0 
 8.778091e-04  -1.965059e-04  0 
 1.945523e-03  2.437072e-05  0 
 2.297142e-03  -8.093244e-04  0 
 -7.263621e-05  -7.685649e-04  0 
 1.229946e-03  -1.282136e-04  0 
 1.930652e-03  -3.289049e-03  0 
 1.998745e-03  -3.388949e-03  0 
 2.584556e-03  -2.382751e-03  0 
 2.488777e-03  -2.659009e-03  0 
 1.174963e-03  -2.699877e-03  0 
 1.160379e-03  -3.788359e-03  0 
 1.619206e-03  -3.114916e-03  0 
 2.195928e-03  -1.990156e-03  0 
 1.003843e-03  -3.781652e-03  0 
 1.869981e-03  -2.506176e-03  0 
 3.466459e-03  -2.194578e-03  0 
 3.458363e-03  -2.438531e-03  0 
 3.502418e-03  -2.290586e-03  0 
 3.500960e-03  -2.485294e-03  0 
VECTORS displacement_ITER17 FLOAT
 2.289172e-03  -2.151110e-03  0 
 2.696040e-03  -3.997050e-03  0 
 2.126568e-03  6.893726e-05  0 
 2.174143e-03  -9.727216e-04  0 
 -5.586153e-04  -1.708522e-03  0 
 2.387333e-04  -1.756680e-03  0 
 1.161605e-03  -1.930125e-03  0 
 2.393989e-03  -2.817674e-03  0 
 2.529046e-03  -3.332924e-03  0 
 2.606116e-03  -3.632420e-03  0 
 -5.535987e-04  -1.056730e-03  0 
 7.120686e-04  -1.180693e-03  0 
 -2.916858e-05  -6.741535e-04  0 
 1.082100e-03  -4.442373e-04  0 
 1.447108e-03  -1.309032e-03  0 
 1.479140e-04  -1.439298e-03  0 
 1.126518e-03  -9.728771e-04  0 
 1.323548e-03  -4.065183e-03  0 
 3.127131e-03  -2.031787e-03  0 
 1.717521e-03  -3.186077e-03  0 
 1.702561e-03  -3.562657e-03  0 
 4.080297e-04  -3.251464e-03  0 
 1.201156e-03  -3.727351e-03  0 
 8.927850e-04  -3.697183e-03  0 
 1.313464e-03  -2.647637e-03  0 
 9.492847e-04  -3.428494e-03  0 
 1.049356e-03  -3.167965e-03  0 
 2.828327e-03  -2.953334e-03  0 
 2.820892e-03  -3.577400e-03  0 
 2.985854e-03  -3.196719e-03  0 
 2.826260e-03  -3.799861e-03  0 
VECTORS displacement_ITER18 FLOAT
 1.178967e-03  -2.371638e-03  0 
 1.587179e-03  -4.010885e-03  0 
 1.013556e-03  -5.783547e-04  0 
 1.061837e-03  -1.406373e-03  0 
 -1.016905e-03  -1.920979e-03  0 
 -4.417172e-04  -1.969897e-03  0 
 2.638107e-04  -2.147488e-03  0 
 1.285312e-03  -2.985031e-03  0 
 1.420948e-03  -3.448195e-03  0 
 1.497626e-03  -3.696126e-03  0 
 -1.016272e-03  -1.441773e-03  0 
 -9.456961e-05  -1.548350e-03  0 
 -6.437270e-04  -1.168328e-03  0 
 1.845167e-04  -9.789486e-04  0 
 4.816368e-04  -1.663360e-03  0 
 -8.111791e-05  -1.819673e-03  0 
 5.266598e-04  -1.505209e-03  0 
 4.708705e-04  -3.913067e-03  0 
 2.132495e-03  -1.583224e-03  0 
 7.257537e-04  -3.219736e-03  0 
 7.462329e-04  -3.541420e-03  0 
 -3.492328e-04  -3.161108e-03  0 
 3.498731e-04  -3.365891e-03  0 
 5.235277e-05  -3.519601e-03  0 
 3.794050e-04  -2.722699e-03  0 
 1.978727e-04  -3.102140e-03  0 
 1.658455e-04  -3.134836e-03  0 
 1.679556e-03  -3.120344e-03  0 
 1.672533e-03  -3.659085e-03  0 
 1.810360e-03  -3.330231e-03  0 
 1.686218e-03  -3.844385e-03  0 
VECTORS displacement_ITER19 FLOAT
 6.815441e-04  -1.996654e-03  0 
 1.096248e-03  -3.395860e-03  0 
 5.129966e-04  -1.436212e-03  0 
 5.620434e-04  -1.647529e-03  0 
 3.457752e-04  -1.539535e-03  0 
 2.955213e-04  -1.588455e-03  0 
 3.811498e-04  -1.769944e-03  0 
 7.908053e-04  -2.548063e-03  0 
 9.279735e-04  -2.951608e-03  0 
 1.005411e-03  -3.140038e-03  0 
 3.345439e-04  -1.547326e-03  0 
 2.854747e-04  -1.603632e-03  0 
 2.803565e-04  -1.581230e-03  0 
 3.054578e-04  -1.512183e-03  0 
 4.053558e-04  -1.678176e-03  0 
 2.349459e-05  -2.027981e-03  0 
 3.102972e-04  -1.641282e-03  0 
 3.495226e-04  -3.225354e-03  0 
 1.325924e-04  -2.396057e-03  0 
 5.638971e-04  -2.591171e-03  0 
 5.555950e-04  -2.915527e-03  0 
 1.305797e-06  -2.406182e-03  0 
 -3.350071e-04  -2.996055e-03  0 
 9.596233e-05  -2.784177e-03  0 
 4.158507e-04  -2.068808e-03  0 
 -2.338655e-04  -3.086092e-03  0 
 2.318345e-04  -2.445140e-03  0 
 1.138777e-03  -2.683620e-03  0 
 1.133446e-03  -3.124600e-03  0 
 1.239222e-03  -2.855686e-03  0 
 1.157287e-03  -3.266602e-03  0 
VECTORS displacement_ITER20 FLOAT
 6.706775e-04  -1.897440e-03  0 
 1.092135e-03  -3.860213e-03  0 
 5.009222e-04  -1.450700e-03  0 
 5.501659e-04  -1.605160e-03  0 
 5.115862e-04  -1.437466e-03  0 
 3.997924e-04  -1.486765e-03  0 
 4.266632e-04  -1.669695e-03  0 
 7.820568e-04  -2.588989e-03  0 
 9.206009e-04  -3.134183e-03  0 
 9.993096e-04  -3.463713e-03  0 
 4.990536e-04  -1.493422e-03  0 
 3.555300e-04  -1.543695e-03  0 
 4.032258e-04  -1.556463e-03  0 
 3.509530e-04  -1.497189e-03  0 
 4.327538e-04  -1.614556e-03  0 
 7.037258e-04  -1.493068e-03  0 
 6.651615e-04  -1.546750e-03  0 
 4.432775e-04  -3.390725e-03  0 
 1.686752e-04  -2.518746e-03  0 
 5.765263e-04  -2.675732e-03  0 
 5.842016e-04  -3.095091e-03  0 
 9.551384e-05  -2.363025e-03  0 
 -2.224116e-04  -3.035873e-03  0 
 1.621712e-04  -2.848771e-03  0 
 4.455428e-04  -2.034057e-03  0 
 -1.143490e-04  -3.114361e-03  0 
 2.794534e-04  -2.465837e-03  0 
 1.240613e-03  -2.728468e-03  0 
 1.236651e-03  -3.399265e-03  0 
 1.414429e-03  -2.990531e-03  0 
 1.238955e-03  -3.644879e-03  0 
VECTORS displacement_ITER21 FLOAT
 5.277319e-04  -1.899209e-03  0 
 9.576701e-04  -4.251762e-03  0 
 3.559740e-04  -1.311226e-03  0 
 4.058876e-04  -1.535814e-03  0 
 1.611503e-04  -1.435225e-03  0 
 1.166776e-04  -1.485622e-03  0 
 2.126506e-04  -1.669775e-03  0 
 6.413304e-04  -2.689955e-03  0 
 7.817987e-04  -3.334472e-03  0 
 8.623198e-04  -3.760618e-03  0 
 1.493613e-04  -1.439215e-03  0 
 1.116762e-04  -1.494425e-03  0 
 9.992566e-05  -1.468172e-03  0 
 1.357859e-04  -1.394369e-03  0 
 2.404043e-04  -1.570312e-03  0 
 1.042774e-03  -1.023074e-03  0 
 7.878365e-04  -1.470494e-03  0 
 4.363951e-04  -3.493444e-03  0 
 1.450648e-03  -1.622354e-03  0 
 4.216235e-04  -2.837080e-03  0 
 4.775681e-04  -3.279246e-03  0 
 1.743886e-05  -2.406704e-03  0 
 3.466969e-04  -2.793256e-03  0 
 1.297424e-04  -2.929322e-03  0 
 2.567319e-04  -2.151038e-03  0 
 2.965159e-04  -2.622800e-03  0 
 1.656614e-04  -2.571433e-03  0 
 1.177640e-03  -2.832982e-03  0 
 1.174293e-03  -3.663137e-03  0 
 1.402240e-03  -3.157495e-03  0 
 1.161822e-03  -3.979257e-03  0 
VECTORS displacement_ITER22 FLOAT
 8.749136e-04  -1.432220e-03  0 
 1.310763e-03  -3.436497e-03  0 
 6.992870e-04  -1.201844e-03  0 
 7.510063e-04  -1.246610e-03  0 
 1.043285e-03  -9.655533e-04  0 
 8.194083e-04  -1.016378e-03  0 
 7.370562e-04  -1.201157e-03  0 
 9.908262e-04  -2.136257e-03  0 
 1.132847e-03  -2.694874e-03  0 
 1.214277e-03  -3.033784e-03  0 
 1.027692e-03  -1.110041e-03  0 
 7.118340e-04  -1.150421e-03  0 
 8.565546e-04  -1.226426e-03  0 
 6.609913e-04  -1.188501e-03  0 
 7.087051e-04  -1.214850e-03  0 
 1.421098e-03  -8.770182e-04  0 
 1.183513e-03  -1.215609e-03  0 
 9.581870e-04  -2.946425e-03  0 
 1.212630e-03  -2.450469e-03  0 
 9.516522e-04  -2.286262e-03  0 
 9.925431e-04  -2.703876e-03  0 
 6.759845e-04  -1.817735e-03  0 
 6.771220e-04  -2.673335e-03  0 
 7.901575e-04  -2.493361e-03  0 
 8.152803e-04  -1.615611e-03  0 
 7.336245e-04  -2.731953e-03  0 
 7.869846e-04  -2.045938e-03  0 
 1.460469e-03  -2.278862e-03  0 
 1.457958e-03  -2.967495e-03  0 
 1.640783e-03  -2.548359e-03  0 
 1.459432e-03  -3.219392e-03  0 
VECTORS displacement_ITER23 FLOAT
 1.365667e-03  -1.113356e-03  0 
 1.804927e-03  -2.985925e-03  0 
 1.186492e-03  -6.152757e-04  0 
 1.240298e-03  -7.928563e-04  0 
 1.122320e-03  -6.486974e-04  0 
 1.037405e-03  -6.990980e-04  0 
 1.092128e-03  -8.822421e-04  0 
 1.483284e-03  -1.783278e-03  0 
 1.626278e-03  -2.308753e-03  0 
 1.708024e-03  -2.614866e-03  0 
 1.109432e-03  -6.855445e-04  0 
 1.009115e-03  -7.360376e-04  0 
 1.033706e-03  -7.326291e-04  0 
 1.015160e-03  -6.692040e-04  0 
 1.106275e-03  -8.094177e-04  0 
 1.692420e-03  -7.044324e-04  0 
 1.636310e-03  -8.961831e-04  0 
 1.335137e-03  -2.842743e-03  0 
 7.310165e-04  -3.603502e-03  0 
 1.425387e-03  -2.030068e-03  0 
 1.445344e-03  -2.470525e-03  0 
 9.019807e-04  -1.582241e-03  0 
 6.563269e-04  -2.961326e-03  0 
 1.184387e-03  -2.462368e-03  0 
 1.219176e-03  -1.341420e-03  0 
 8.502079e-04  -3.278709e-03  0 
 1.181119e-03  -1.845172e-03  0 
 1.927463e-03  -1.925956e-03  0 
 1.926172e-03  -2.560142e-03  0 
 2.091353e-03  -2.174376e-03  0 
 1.933247e-03  -2.788318e-03  0 
VECTORS displacement_ITER24 FLOAT
 1.299392e-03  -1.390951e-03  0 
 1.745378e-03  -3.599970e-03  0 
 1.117437e-03  -5.401241e-05  0 
 1.172929e-03  -6.498810e-04  0 
 -2.127498e-04  -9.288176e-04  0 
 1.278064e-04  -9.790881e-04  0 
 6.050126e-04  -1.159990e-03  0 
 1.418891e-03  -2.146972e-03  0 
 1.563703e-03  -2.757781e-03  0 
 1.646821e-03  -3.146611e-03  0 
 -2.175259e-04  -6.346939e-04  0 
 3.428655e-04  -7.183012e-04  0 
 -2.588612e-06  -4.715412e-04  0 
 5.252843e-04  -3.258850e-04  0 
 7.511253e-04  -8.193482e-04  0 
 1.279343e-03  -5.436502e-04  0 
 1.396594e-03  -7.958566e-04  0 
 1.195771e-03  -3.226145e-03  0 
 2.190735e-03  -2.335353e-03  0 
 1.137330e-03  -2.504695e-03  0 
 1.233012e-03  -2.938156e-03  0 
 3.041929e-04  -2.039601e-03  0 
 1.020701e-03  -2.849266e-03  0 
 8.435498e-04  -2.859378e-03  0 
 7.825989e-04  -1.815497e-03  0 
 1.085670e-03  -2.807508e-03  0 
 7.632920e-04  -2.302733e-03  0 
 1.930268e-03  -2.292859e-03  0 
 1.929371e-03  -3.063402e-03  0 
 2.137929e-03  -2.594729e-03  0 
 1.923754e-03  -3.352119e-03  0 
VECTORS displacement_ITER25 FLOAT
 1.188722e-03  -1.018134e-03  0 
 1.639790e-03  -3.211726e-03  0 
 1.002554e-03  -2.996447e-04  0 
 1.060355e-03  -5.849746e-04  0 
 5.915312e-04  -5.608344e-04  0 
 6.285048e-04  -6.095647e-04  0 
 8.005743e-04  -7.881442e-04  0 
 1.311155e-03  -1.768541e-03  0 
 1.457680e-03  -2.375202e-03  0 
 1.541215e-03  -2.760045e-03  0 
 5.813541e-04  -5.038248e-04  0 
 6.692110e-04  -5.614960e-04  0 
 5.898344e-04  -4.891001e-04  0 
 7.240788e-04  -4.052757e-04  0 
 8.510047e-04  -6.412867e-04  0 
 2.292053e-04  -7.977955e-04  0 
 6.513027e-04  -5.074296e-04  0 
 1.269437e-03  -2.894752e-03  0 
 1.190356e-03  -3.269519e-03  0 
 1.223479e-03  -2.109273e-03  0 
 1.288857e-03  -2.582664e-03  0 
 5.986310e-04  -1.639284e-03  0 
 7.480110e-04  -2.905086e-03  0 
 1.022747e-03  -2.548543e-03  0 
 9.657924e-04  -1.362503e-03  0 
 9.478457e-04  -3.072360e-03  0 
 9.547213e-04  -1.916514e-03  0 
 1.819800e-03  -1.915904e-03  0 
 1.820786e-03  -2.678423e-03  0 
 2.026305e-03  -2.215290e-03  0 
 1.816362e-03  -2.964568e-03  0 
VECTORS displacement_ITER26 FLOAT
 1.011750e-03  -9.623069e-04  0 
 1.465192e-03  -3.096898e-03  0 
 8.230582e-04  -3.355271e-04  0 
 8.822753e-04  -5.743048e-04  0 
 5.473456e-04  -5.069916e-04  0 
 5.406079e-04  -5.549110e-04  0 
 6.683328e-04  -7.322650e-04  0 
 1.135946e-03  -1.696054e-03  0 
 1.283351e-03  -2.287419e-03  0 
 1.366966e-03  -2.657759e-03  0 
 5.364866e-04  -4.845471e-04  0 
 5.562559e-04  -5.371005e-04  0 
 5.157374e-04  -4.901154e-04  0 
 5.924951e-04  -4.152542e-04  0 
 7.047484e-04  -6.135747e-04  0 
 1.115962e-04  -6.968927e-04  0 
 4.931821e-04  -4.968081e-04  0 
 1.287204e-03  -2.637757e-03  0 
 1.455776e-03  -2.687702e-03  0 
 1.094922e-03  -2.007282e-03  0 
 1.203737e-03  -2.442562e-03  0 
 5.648234e-04  -1.506165e-03  0 
 9.077730e-04  -2.526522e-03  0 
 9.998279e-04  -2.329985e-03  0 
 8.416752e-04  -1.289263e-03  0 
 1.113853e-03  -2.585184e-03  0 
 8.761326e-04  -1.792123e-03  0 
 1.633052e-03  -1.843863e-03  0 
 1.635620e-03  -2.581277e-03  0 
 1.832950e-03  -2.134185e-03  0 
 1.633717e-03  -2.857089e-03  0 
VECTORS displacement_ITER27 FLOAT
 5.598136e-04  -1.216219e-03  0 
 1.013735e-03  -2.941257e-03  0 
 3.700416e-04  -2.465981e-04  0 
 4.299477e-04  -6.567887e-04  0 
 -4.202343e-04  -7.621478e-04  0 
 -2.546805e-04  -8.095852e-04  0 
 4.484841e-05  -9.861135e-04  0 
 6.847652e-04  -1.844727e-03  0 
 8.321439e-04  -2.332805e-03  0 
 9.156455e-04  -2.601745e-03  0 
 -4.277333e-04  -6.058001e-04  0 
 -1.401895e-04  -6.706508e-04  0 
 -3.305558e-04  -5.254194e-04  0 
 -3.228240e-05  -4.161321e-04  0 
 1.349906e-04  -7.584225e-04  0 
 4.220673e-04  -4.318695e-04  0 
 5.367661e-04  -7.472255e-04  0 
 8.924079e-04  -2.482460e-03  0 
 2.013603e-03  -1.617321e-03  0 
 5.769614e-04  -2.114815e-03  0 
 7.435041e-04  -2.421929e-03  0 
 1.665217e-05  -1.638828e-03  0 
 9.362450e-04  -2.119150e-03  0 
 5.382897e-04  -2.278007e-03  0 
 2.536976e-04  -1.544630e-03  0 
 1.020165e-03  -1.934239e-03  0 
 3.460584e-04  -1.904511e-03  0 
 1.101538e-03  -1.990284e-03  0 
 1.105673e-03  -2.560994e-03  0 