# vtk DataFile Version 3.1
this is an vtk file created by FEMAC
ASCII
DATASET UNSTRUCTURED_GRID
POINTS 31 FLOAT
2.000000 4.000000 0.000000
2.000000 5.000000 0.000000
1.500000 5.000000 0.000000
1.750000 5.000000 0.000000
2.000000 4.250000 0.000000
2.000000 4.500000 0.000000
2.000000 4.750000 0.000000
2.000000 5.250000 0.000000
2.250000 5.000000 0.000000
1.668552 4.802393 0.000000
1.825071 4.338322 0.000000
1.500000 4.775000 0.000000
1.800052 4.608882 0.000000
1.613228 4.205045 0.000000
1.561048 4.603297 0.000000
1.418444 4.423893 0.000000
1.643569 4.435888 0.000000
1.843721 4.832255 0.000000
1.837660 4.158674 0.000000
1.674167 5.178356 0.000000
1.500000 5.225000 0.000000
1.828194 5.341416 0.000000
1.630720 5.401594 0.000000
1.850472 5.153954 0.000000
2.255000 4.805000 0.000000
2.255000 4.195000 0.000000
2.169567 4.378219 0.000000
2.242859 4.565925 0.000000
2.413341 4.323754 0.000000
2.371000 5.200321 0.000000
2.169413 5.172421 0.000000
CELLS 42 168 
3 2 9 3
3 5 10  4
3 11  9  2
3 14  9 11
3 6 12  5
3 16 13 10
3 9 14 12
3 12 10  5
3 16 10 12
3 12 14 16
3 3 17  1
3 17  6  1
3 17  3  9
3 18  4 10
3 4 18  0
3 17 12  6
3 9 12 17
3 10 13 18
3 16 14 15
3 16 15 13
3 19  2  3
3 19 20  2
3 19 22 20
3 21 22 19
3 23  3  1
3 7 23  1
3 3 23 19
3 21 23  7
3 21 19 23
3 4 26  5
3 27  6  5
3 28 26 25
3 27 24  6
3 25 26  4
3 24  1  6
3 8  1 24
3 0 25  4
3 5 26 27
3 27 26 28
3 30  7  1
3 8 30  1
3 30  8 29
CELL_TYPES 42
5 5 5 5 5 5 5 5 5 5 5 5 5 5 5 5 5 5 5 5 5 5 5 5 5 5 5 5 5 5 5 5 5 5 5 5 5 5 5 5 5 5 
POINT_DATA 31
VECTORS displacement_ITER1 FLOAT
 3.782240e-02  -7.636903e-02  0 
 3.357803e-02  -7.644337e-02  0 
 3.350404e-02  -5.064034e-02  0 
 3.353485e-02  -6.356485e-02  0 
 3.677330e-02  -7.637653e-02  0 
 3.571720e-02  -7.639984e-02  0 
 3.464584e-02  -7.642651e-02  0 
 4.644701e-02  -7.648340e-02  0 
 3.362748e-02  -7.543500e-02  0 
 2.389669e-02  -6.213521e-02  0 
 3.393931e-02  -6.643575e-02  0 
 1.501662e-02  -4.779214e-02  0 
 2.996862e-02  -6.597736e-02  0 
 3.328922e-02  -5.546059e-02  0 
 2.258063e-02  -5.521627e-02  0 
 2.563777e-02  -5.608308e-02  0 
 2.890313e-02  -5.815510e-02  0 
 2.986408e-02  -7.099493e-02  0 
 3.588385e-02  -6.895619e-02  0 
 4.273510e-02  -5.965973e-02  0 
 4.513724e-02  -5.064879e-02  0 
 5.116353e-02  -6.762176e-02  0 
 5.427425e-02  -5.741591e-02  0 
 4.148584e-02  -6.876492e-02  0 
 3.442610e-02  -7.535840e-02  0 
 3.701086e-02  -7.531628e-02  0 
 3.624259e-02  -7.568069e-02  0 
 3.545041e-02  -7.538366e-02  0 
 3.648456e-02  -7.466996e-02  0 
 8.015594e-02  -1.377122e-01  0 
 4.886980e-02  -8.420047e-02  0 
VECTORS displacement_ITER2 FLOAT
 4.950779e-02  -7.525431e-02  0 
 4.396996e-02  -7.544132e-02  0 
 4.386059e-02  -6.723505e-02  0 
 4.390487e-02  -7.136675e-02  0 
 4.822680e-02  -7.527649e-02  0 
 4.690167e-02  -7.534843e-02  0 
 4.548172e-02  -7.541881e-02  0 
 4.801381e-02  -7.548716e-02  0 
 4.401455e-02  -7.399360e-02  0 
 3.592564e-02  -6.832956e-02  0 
 4.468408e-02  -6.653774e-02  0 
 2.485468e-02  -5.411637e-02  0 
 4.153644e-02  -6.798291e-02  0 
 4.121074e-02  -5.362653e-02  0 
 3.277814e-02  -5.741048e-02  0 
 3.445165e-02  -5.495637e-02  0 
 3.913880e-02  -5.865677e-02  0 
 4.158810e-02  -7.363903e-02  0 
 4.618038e-02  -6.723938e-02  0 
 4.682510e-02  -7.014178e-02  0 
 4.758050e-02  -6.726196e-02  0 
 4.951050e-02  -7.268333e-02  0 
 5.050154e-02  -6.943227e-02  0 
 4.643956e-02  -7.304048e-02  0 
 4.516226e-02  -7.392744e-02  0 
 4.852138e-02  -7.396571e-02  0 
 4.757257e-02  -7.441438e-02  0 
 4.656136e-02  -7.401477e-02  0 
 4.786502e-02  -7.315083e-02  0 
 7.396832e-02  -1.099151e-01  0 
 5.270759e-02  -7.849141e-02  0 
VECTORS displacement_ITER3 FLOAT
 2.760309e-02  -4.863209e-02  0 
 4.281196e-02  -4.899319e-02  0 
 4.264386e-02  -5.280505e-02  0 
 4.270966e-02  -5.093828e-02  0 
 3.164792e-02  -4.867528e-02  0 
 3.559348e-02  -4.882090e-02  0 
 3.932203e-02  -4.895968e-02  0 
 4.080309e-02  -4.905134e-02  0 
 4.285229e-02  -5.255645e-02  0 
 3.256970e-02  -4.476907e-02  0 
 2.954531e-02  -3.897518e-02  0 
 1.881977e-02  -2.827508e-02  0 
 3.325882e-02  -4.193361e-02  0 
 2.116913e-02  -2.253573e-02  0 
 2.333171e-02  -2.822846e-02  0 
 2.038307e-02  -2.089186e-02  0 
 2.599804e-02  -2.920989e-02  0 
 3.835715e-02  -4.880918e-02  0 
 2.677188e-02  -3.819761e-02  0 
 4.133909e-02  -5.155159e-02  0 
 4.096771e-02  -5.285367e-02  0 
 4.010182e-02  -5.039346e-02  0 
 3.964796e-02  -5.189048e-02  0 
 4.154750e-02  -5.021286e-02  0 
 4.010157e-02  -5.261700e-02  0 
 3.077807e-02  -5.277530e-02  0 
 3.371884e-02  -5.141168e-02  0 
 3.664011e-02  -5.252178e-02  0 
 3.285090e-02  -5.530379e-02  0 
 5.221530e-02  -5.012636e-02  0 
 4.615882e-02  -4.867803e-02  0 
VECTORS displacement_ITER4 FLOAT
 2.131294e-02  -4.306237e-02  0 
 4.367640e-02  -4.352890e-02  0 
 4.347319e-02  -5.162664e-02  0 
 4.355099e-02  -4.762472e-02  0 
 2.721874e-02  -4.311763e-02  0 
 3.299667e-02  -4.330421e-02  0 
 3.849332e-02  -4.348331e-02  0 
 3.950295e-02  -4.360315e-02  0 
 4.371986e-02  -4.879349e-02  0 
 3.279137e-02  -4.061306e-02  0 
 2.554733e-02  -3.351852e-02  0 
 1.837792e-02  -2.380497e-02  0 
 3.172246e-02  -3.692039e-02  0 
 1.525689e-02  -1.628847e-02  0 
 2.153512e-02  -2.253533e-02  0 
 1.682487e-02  -1.348967e-02  0 
 2.276080e-02  -2.337920e-02  0 
 3.853432e-02  -4.401847e-02  0 
 2.127214e-02  -3.213355e-02  0 
 4.065046e-02  -4.889459e-02  0 
 3.987793e-02  -5.168048e-02  0 
 3.801998e-02  -4.642280e-02  0 
 3.705429e-02  -4.960553e-02  0 
 4.107243e-02  -4.604864e-02  0 
 3.964809e-02  -4.889435e-02  0 
 2.594378e-02  -4.910406e-02  0 
 3.024175e-02  -4.711017e-02  0 
 3.452709e-02  -4.874154e-02  0 
 2.896962e-02  -5.279645e-02  0 
 4.661996e-02  -3.435709e-02  0 
 4.538747e-02  -4.225549e-02  0 
VECTORS displacement_ITER5 FLOAT
 3.130805e-02  -2.857662e-02  0 
 3.878607e-02  -2.916751e-02  0 
 3.853658e-02  -4.230253e-02  0 
 3.862833e-02  -3.579407e-02  0 
 3.356108e-02  -2.864577e-02  0 
 3.565911e-02  -2.887573e-02  0 
 3.741329e-02  -2.910018e-02  0 
 3.207376e-02  -2.927888e-02  0 
 3.884602e-02  -3.064136e-02  0 
 3.112291e-02  -3.104297e-02  0 
 3.031521e-02  -2.279355e-02  0 
 1.844119e-02  -1.829631e-02  0 
 3.272752e-02  -2.611857e-02  0 
 2.107879e-02  -9.751952e-03  0 
 2.326871e-02  -1.648794e-02  0 
 2.040313e-02  -9.345111e-03  0 
 2.629272e-02  -1.608406e-02  0 
 3.610049e-02  -3.175836e-02  0 
 2.863015e-02  -2.078558e-02  0 
 3.393077e-02  -3.783097e-02  0 
 3.268997e-02  -4.234685e-02  0 
 2.967661e-02  -3.382642e-02  0 
 2.811549e-02  -3.897371e-02  0 
 3.460495e-02  -3.322195e-02  0 
 3.773871e-02  -3.065511e-02  0 
 3.309477e-02  -3.089493e-02  0 
 3.471016e-02  -3.015724e-02  0 
 3.622306e-02  -3.069869e-02  0 
 3.423738e-02  -3.226193e-02  0 
 4.363058e-02  -2.052777e-02  0 
 3.990123e-02  -2.638866e-02  0 
VECTORS displacement_ITER6 FLOAT
 2.151040e-02  -1.842206e-02  0 
 2.638044e-02  -1.904681e-02  0 
 2.610747e-02  -2.393141e-02  0 
 2.620570e-02  -2.155529e-02  0 
 2.312090e-02  -1.849304e-02  0 
 2.457480e-02  -1.873102e-02  0 
 2.567410e-02  -1.896777e-02  0 
 2.378744e-02  -1.918292e-02  0 
 2.645508e-02  -1.986744e-02  0 
 1.906203e-02  -1.923438e-02  0 
 2.015619e-02  -1.446601e-02  0 
 9.322765e-03  -9.408043e-03  0 
 2.125448e-02  -1.641959e-02  0 
 1.365469e-02  -6.695873e-03  0 
 1.363047e-02  -9.955942e-03  0 
 1.221537e-02  -6.607482e-03  0 
 1.659958e-02  -1.004997e-02  0 
 2.361197e-02  -2.050638e-02  0 
 1.959762e-02  -1.344803e-02  0 
 2.445237e-02  -2.233877e-02  0 
 2.398460e-02  -2.396031e-02  0 
 2.290590e-02  -2.088958e-02  0 
 2.234768e-02  -2.275727e-02  0 
 2.472706e-02  -2.064960e-02  0 
 2.585971e-02  -1.985298e-02  0 
 2.279474e-02  -2.008567e-02  0 
 2.394215e-02  -1.956970e-02  0 
 2.497225e-02  -1.992336e-02  0 
 2.361041e-02  -2.104978e-02  0 
 3.968202e-02  -2.031013e-02  0 
 3.104673e-02  -1.779231e-02  0 
VECTORS displacement_ITER7 FLOAT
 2.052899e-02  -1.406411e-02  0 
 1.591039e-02  -1.469773e-02  0 
 1.561849e-02  -1.544863e-02  0 
 1.572271e-02  -1.514470e-02  0 
 1.976229e-02  -1.413265e-02  0 
 1.884422e-02  -1.436865e-02  0 
 1.757425e-02  -1.460983e-02  0 
 1.538078e-02  -1.485289e-02  0 
 1.599870e-02  -1.315987e-02  0 
 1.050071e-02  -1.554061e-02  0 
 1.663755e-02  -1.291064e-02  0 
 3.825175e-03  -9.604094e-03  0 
 1.448323e-02  -1.379822e-02  0 
 1.435736e-02  -1.185169e-02  0 
 8.694365e-03  -1.186759e-02  0 
 1.016438e-02  -1.337389e-02  0 
 1.286255e-02  -1.192251e-02  0 
 1.433476e-02  -1.613393e-02  0 
 1.857448e-02  -1.307447e-02  0 
 1.544474e-02  -1.530001e-02  0 
 1.536437e-02  -1.546667e-02  0 
 1.526057e-02  -1.513458e-02  0 
 1.520700e-02  -1.535444e-02  0 
 1.552054e-02  -1.507620e-02  0 
 1.724432e-02  -1.308322e-02  0 
 1.995611e-02  -1.330204e-02  0 
 1.936620e-02  -1.359849e-02  0 
 1.861942e-02  -1.326055e-02  0 
 1.955170e-02  -1.276777e-02  0 
 3.566478e-02  -2.360631e-02  0 
 2.248246e-02  -1.389633e-02  0 
VECTORS displacement_ITER8 FLOAT
 1.882979e-02  -1.145892e-02  0 
 1.235612e-02  -1.209012e-02  0 
 1.205361e-02  -1.096711e-02  0 
 1.216200e-02  -1.160260e-02  0 
 1.759601e-02  -1.152443e-02  0 
 1.621423e-02  -1.175695e-02  0 
 1.448350e-02  -1.199904e-02  0 
 1.275966e-02  -1.225133e-02  0 
 1.245041e-02  -1.009404e-02  0 
 7.487805e-03  -1.291930e-02  0 
 1.472562e-02  -1.118098e-02  0 
 2.071909e-03  -8.371643e-03  0 
 1.170268e-02  -1.169486e-02  0 
 1.445062e-02  -1.295881e-02  0 
 6.667791e-03  -1.133784e-02  0 
 9.208873e-03  -1.498186e-02  0 
 1.107513e-02  -1.148253e-02  0 
 1.101156e-02  -1.337473e-02  0 
 1.744234e-02  -1.203708e-02  0 
 1.255249e-02  -1.147454e-02  0 
 1.264668e-02  -1.098391e-02  0 
 1.298415e-02  -1.188909e-02  0 
 1.315838e-02  -1.136506e-02  0 
 1.253833e-02  -1.191349e-02  0 
 1.405390e-02  -1.000270e-02  0 
 1.789031e-02  -1.021847e-02  0 
 1.696071e-02  -1.067342e-02  0 
 1.586844e-02  -1.020084e-02  0 
 1.724635e-02  -9.391826e-03  0 
 3.318255e-02  -2.220017e-02  0 
 1.934998e-02  -1.146204e-02  0 
VECTORS displacement_ITER9 FLOAT
 1.255128e-02  -1.052377e-02  0 
 9.872426e-03  -1.115489e-02  0 
 9.554458e-03  -8.655707e-03  0 
 9.669398e-03  -9.981581e-03  0 
 1.227344e-02  -1.058580e-02  0 
 1.184711e-02  -1.081719e-02  0 
 1.106641e-02  -1.106274e-02  0 
 1.095423e-02  -1.131850e-02  0 
 9.970891e-03  -1.009867e-02  0 
 5.082504e-03  -1.125297e-02  0 
 1.040494e-02  -1.027457e-02  0 
 6.590707e-04  -7.478766e-03  0 
 8.237299e-03  -1.053917e-02  0 
 1.154331e-02  -1.350815e-02  0 
 4.123860e-03  -1.040898e-02  0 
 6.733617e-03  -1.486465e-02  0 
 7.671589e-03  -1.087494e-02  0 
 8.200576e-03  -1.193205e-02  0 
 1.271714e-02  -1.182411e-02  0 
 1.054989e-02  -9.648150e-03  0 
 1.077115e-02  -8.675881e-03  0 
 1.143197e-02  -1.048697e-02  0 
 1.177328e-02  -9.418873e-03  0 
 1.047059e-02  -1.057269e-02  0 
 1.084265e-02  -1.002534e-02  0 
 1.235473e-02  -1.025442e-02  0 
 1.212710e-02  -1.038061e-02  0 
 1.175305e-02  -1.018518e-02  0 
 1.220108e-02  -1.003352e-02  0 
 2.736141e-02  -1.662391e-02  0 
 1.628310e-02  -1.047355e-02  0 
VECTORS displacement_ITER10 FLOAT
 7.807613e-03  -8.539589e-03  0 
 4.354716e-03  -9.193120e-03  0 
 4.018136e-03  -9.045349e-03  0 
 4.140057e-03  -9.197923e-03  0 
 7.360931e-03  -8.602539e-03  0 
 6.756371e-03  -8.842946e-03  0 
 5.776987e-03  -9.099339e-03  0 
 4.247645e-03  -9.361711e-03  0 
 4.457699e-03  -7.919067e-03  0 
 9.049196e-04  -1.001804e-02  0 
 5.830483e-03  -8.595945e-03  0 
 -2.867700e-03  -7.092993e-03  0 
 3.766380e-03  -8.951631e-03  0 
 7.218514e-03  -1.161816e-02  0 
 4.141955e-04  -8.970968e-03  0 
 2.915962e-03  -1.262874e-02  0 
 3.539420e-03  -9.259937e-03  0 
 3.389463e-03  -1.019428e-02  0 
 7.977862e-03  -1.002555e-02  0 
 4.179783e-03  -9.225478e-03  0 
 4.179885e-03  -9.069673e-03  0 
 4.296391e-03  -9.342034e-03  0 
 4.355642e-03  -9.200714e-03  0 
 4.218104e-03  -9.322080e-03  0 
 5.502913e-03  -7.840955e-03  0 
 7.479405e-03  -8.094996e-03  0 
 7.125283e-03  -8.278557e-03  0 
 6.614163e-03  -8.023746e-03  0 
 7.233784e-03  -7.760741e-03  0 
 1.770397e-02  -9.778727e-03  0 
 9.166606e-03  -7.844513e-03  0 
VECTORS displacement_ITER11 FLOAT
 9.220522e-03  -7.726921e-03  0 
 4.727674e-03  -8.413724e-03  0 
 4.373839e-03  -1.046236e-02  0 
 4.501728e-03  -9.519182e-03  0 
 8.544543e-03  -7.793679e-03  0 
 7.697146e-03  -8.047999e-03  0 
 6.449219e-03  -8.317737e-03  0 
 3.509766e-03  -8.588670e-03  0 
 4.834734e-03  -6.850944e-03  0 
 2.555192e-03  -9.600296e-03  0 
 7.009782e-03  -7.631000e-03  0 
 -9.405806e-04  -6.829206e-03  0 
 5.176161e-03  -8.215355e-03  0 
 7.403164e-03  -8.688312e-03  0 
 2.197689e-03  -7.601326e-03  0 
 3.995771e-03  -9.293130e-03  0 
 4.907142e-03  -7.661184e-03  0 
 4.500764e-03  -9.519741e-03  0 
 8.720308e-03  -8.461346e-03  0 
 3.755886e-03  -9.883672e-03  0 
 3.549636e-03  -1.048972e-02  0 
 3.157841e-03  -9.326776e-03  0 
 2.953909e-03  -1.004969e-02  0 
 3.904111e-03  -9.207668e-03  0 
 6.109179e-03  -6.766520e-03  0 
 8.715513e-03  -7.046853e-03  0 
 8.188219e-03  -7.309755e-03  0 
 7.489486e-03  -6.975592e-03  0 
 8.345932e-03  -6.557719e-03  0 
 1.474048e-02  -5.667776e-03  0 
 8.195046e-03  -6.560521e-03  0 
VECTORS displacement_ITER12 FLOAT
 9.444216e-03  -4.804920e-03  0 
 4.166796e-03  -5.529591e-03  0 
 3.795325e-03  -8.979676e-03  0 
 3.929094e-03  -7.338563e-03  0 
 8.604036e-03  -4.875979e-03  0 
 7.578106e-03  -5.145518e-03  0 
 6.124748e-03  -5.430224e-03  0 
 2.234951e-03  -5.711753e-03  0 
 4.279098e-03  -3.742319e-03  0 
 3.323709e-03  -6.693546e-03  0 
 7.155640e-03  -4.575470e-03  0 
 3.467930e-04  -4.014004e-03  0 
 5.579836e-03  -5.274932e-03  0 
 6.743299e-03  -3.909410e-03  0 
 3.149210e-03  -4.060353e-03  0 
 4.307486e-03  -4.047630e-03  0 
 5.347456e-03  -4.011512e-03  0 
 4.655417e-03  -6.541647e-03  0 
 8.407536e-03  -4.910413e-03  0 
 2.681156e-03  -7.919170e-03  0 
 2.342870e-03  -9.009478e-03  0 
 1.628069e-03  -6.934230e-03  0 
 1.257028e-03  -8.206518e-03  0 
 2.900472e-03  -6.751360e-03  0 
 5.733216e-03  -3.651101e-03  0 
 8.813406e-03  -3.955533e-03  0 
 8.160406e-03  -4.276209e-03  0 
 7.322368e-03  -3.881960e-03  0 
 8.353595e-03  -3.352370e-03  0 
 1.126871e-02  -1.318760e-03  0 
 6.463975e-03  -3.502794e-03  0 
VECTORS displacement_ITER13 FLOAT
 3.699062e-03  -1.258535e-03  0 
 1.122478e-03  -2.010530e-03  0 
 7.343938e-04  -4.238294e-03  0 
 8.738585e-04  -3.211244e-03  0 
 3.557952e-03  -1.331929e-03  0 
 3.220807e-03  -1.611765e-03  0 
 2.436486e-03  -1.907960e-03  0 
 -2.111959e-04  -2.198342e-03  0 
 1.240929e-03  -8.787570e-04  0 
 1.006659e-03  -2.008726e-03  0 
 2.778295e-03  -7.714998e-04  0 
 -9.130669e-04  5.723858e-04  0 
 2.147767e-03  -1.303957e-03  0 
 2.291532e-03  4.796932e-04  0 
 6.753830e-04  3.840642e-04  0 
 1.184057e-03  1.088549e-03  0 
 1.800178e-03  1.828186e-04  0 
 1.698506e-03  -2.327676e-03  0 
 3.245732e-03  -1.046975e-03  0 
 6.003934e-05  -3.609548e-03  0 
 -1.653038e-04  -4.270394e-03  0 
 -5.927550e-04  -3.003822e-03  0 
 -8.148252e-04  -3.789759e-03  0 
 2.219591e-04  -2.874793e-03  0 
 2.187576e-03  -7.969967e-04  0 
 3.614331e-03  -1.119703e-03  0 
 3.470174e-03  -1.202372e-03  0 
 3.146083e-03  -1.004281e-03  0 
 3.510012e-03  -9.523103e-04  0 
 5.527885e-03  2.596410e-03  0 
 2.774676e-03  -4.285706e-04  0 
VECTORS displacement_ITER14 FLOAT
 6.063056e-03  -3.226096e-03  0 
 3.027065e-03  -3.983997e-03  0 
 2.634662e-03  -5.445900e-03  0 
 2.775917e-03  -4.802729e-03  0 
 5.811545e-03  -3.300480e-03  0 
 5.361188e-03  -3.582442e-03  0 
 4.460637e-03  -3.880521e-03  0 
 2.072077e-03  -4.171408e-03  0 
 3.148154e-03  -2.736375e-03  0 
 3.094127e-03  -3.625713e-03  0 
 4.981427e-03  -2.473148e-03  0 
 1.390993e-03  -1.018343e-03  0 
 4.226000e-03  -3.100340e-03  0 
 4.267525e-03  -5.284902e-04  0 
 2.729178e-03  -1.282038e-03  0 
 3.029714e-03  -2.841776e-04  0 
 3.880245e-03  -1.370451e-03  0 
 3.702013e-03  -4.100970e-03  0 
 5.413623e-03  -2.566547e-03  0 
 2.234869e-03  -5.085556e-03  0 
 2.080756e-03  -5.479079e-03  0 
 1.831540e-03  -4.715179e-03  0 
 1.702276e-03  -5.198512e-03  0 
 2.359674e-03  -4.620906e-03  0 
 4.186037e-03  -2.649966e-03  0 
 5.892959e-03  -2.974630e-03  0 
 5.666283e-03  -3.095360e-03  0 
 5.256557e-03  -2.863363e-03  0 
 5.730319e-03  -2.735292e-03  0 
 5.722756e-03  1.485293e-03  0 
 4.147258e-03  -2.378495e-03  0 
VECTORS displacement_ITER15 FLOAT
 1.744233e-03  -1.013328e-03  0 
 1.723259e-04  -1.759582e-03  0 
 -2.182435e-04  7.001220e-04  0 
 -7.764948e-05  -6.184342e-04  0 
 1.844766e-03  -1.085515e-03  0 
 1.751782e-03  -1.359939e-03  0 
 1.222086e-03  -1.653071e-03  0 
 1.178500e-03  -1.945370e-03  0 
 2.968753e-04  -8.951416e-04  0 
 -1.540520e-04  -3.542320e-04  0 
 1.611674e-03  -4.634170e-04  0 
 -7.091966e-04  1.092252e-03  0 
 7.914773e-04  -6.834811e-04  0 
 2.424477e-03  -5.638018e-04  0 
 2.643816e-05  -2.414777e-05  0 
 8.480138e-04  -8.828850e-04  0 
 9.461106e-04  -2.425177e-04  0 
 3.753833e-04  -1.214629e-03  0 
 2.141950e-03  -1.095466e-03  0 
 7.817358e-04  -3.042223e-04  0 
 9.957742e-04  6.707610e-04  0 
 1.658069e-03  -1.140644e-03  0 
 2.003437e-03  -7.259902e-05  0 
 7.135575e-04  -1.223220e-03  0 
 1.034399e-03  -8.112183e-04  0 
 1.847355e-03  -1.119696e-03  0 
 1.880173e-03  -1.119931e-03  0 
 1.742656e-03  -9.975283e-04  0 
 1.867135e-03  -1.106663e-03  0 
 1.403103e-03  3.132379e-03  0 
 1.233041e-03  -7.658451e-04  0 
VECTORS displacement_ITER16 FLOAT
 3.780553e-03  -3.163831e-03  0 
 2.156232e-04  -3.918602e-03  0 
 -1.731795e-04  -2.831653e-04  0 
 -3.373039e-05  -2.190171e-03  0 
 3.381066e-03  -3.238337e-03  0 
 2.786609e-03  -3.514082e-03  0 
 1.757981e-03  -3.807998e-03  0 
 1.810758e-03  -4.105747e-03  0 
 3.430571e-04  -2.562089e-03  0 
 1.007260e-04  -2.416549e-03  0 
 2.969113e-03  -2.669455e-03  0 
 -8.828462e-05  -1.742187e-03  0 
 1.600870e-03  -2.833007e-03  0 
 3.633970e-03  -2.398147e-03  0 
 9.811720e-04  -2.642526e-03  0 
 1.830586e-03  -3.333517e-03  0 
 2.120699e-03  -2.599224e-03  0 
 6.069550e-04  -3.248872e-03  0 
 3.658123e-03  -3.050254e-03  0 
 1.246189e-03  -1.695668e-03  0 
 1.572050e-03  -3.083359e-04  0 
 2.507352e-03  -2.894980e-03  0 
 2.996278e-03  -1.358700e-03  0 
 1.119554e-03  -3.030829e-03  0 
 1.464187e-03  -2.463439e-03  0 
 3.495319e-03  -2.761013e-03  0 
 3.159687e-03  -2.933970e-03  0 
 2.646061e-03  -2.666958e-03  0 
 3.257162e-03  -2.429315e-03  0 
 1.108866e-03  -1.521862e-03  0 
 9.826086e-04  -3.347865e-03  0 
VECTORS displacement_ITER17 FLOAT
 2.047987e-03  -3.123616e-03  0 
 1.085587e-03  -3.893969e-03  0 
 6.922651e-04  -2.445589e-03  0 
 8.335395e-04  -3.259409e-03  0 
 2.308794e-03  -3.200257e-03  0 
 2.370585e-03  -3.481430e-03  0 
 1.990424e-03  -3.781163e-03  0 
 1.584129e-03  -4.082285e-03  0 
 1.214303e-03  -3.177088e-03  0 
 1.017952e-03  -2.867200e-03  0 
 2.210548e-03  -2.387347e-03  0 
 5.779566e-04  -2.028118e-03  0 
 1.778987e-03  -2.828980e-03  0 
 2.252692e-03  -1.159705e-03  0 
 1.143055e-03  -2.073050e-03  0 
 1.287463e-03  -1.704464e-03  0 
 1.710855e-03  -1.905678e-03  0 
 1.382633e-03  -3.447682e-03  0 
 2.233784e-03  -2.561466e-03  0 
 1.332760e-03  -3.098669e-03  0 
 1.453453e-03  -2.474793e-03  0 
 1.879590e-03  -3.624263e-03  0 
 2.103907e-03  -2.953110e-03  0 
 1.313668e-03  -3.662064e-03  0 
 1.837441e-03  -3.090962e-03  0 
 2.278751e-03  -3.394054e-03  0 
 2.425323e-03  -3.342505e-03  0 
 2.403097e-03  -3.266044e-03  0 
 2.378741e-03  -3.476853e-03  0 
 8.367360e-04  -2.441960e-03  0 
 1.160261e-03  -3.714870e-03  0 
VECTORS displacement_ITER18 FLOAT
 -2.964905e-06  -2.437655e-03  0 
 1.448278e-03  -3.214051e-03  0 
 1.050107e-03  -3.407609e-03  0 
 1.193391e-03  -3.400585e-03  0 
 8.665837e-04  -2.515213e-03  0 
 1.535557e-03  -2.798786e-03  0 
 1.758280e-03  -3.101113e-03  0 
 1.122912e-03  -3.403377e-03  0 
 1.578385e-03  -3.094653e-03  0 
 1.427817e-03  -2.538473e-03  0 
 1.065616e-03  -1.638155e-03  0 
 9.020638e-04  -1.567076e-03  0 
 1.459287e-03  -2.239545e-03  0 
 7.538141e-04  -5.510881e-05  0 
 8.912904e-04  -1.122900e-03  0 
 5.164251e-04  -1.500771e-04  0 
 9.210703e-04  -9.441484e-04  0 
 1.634630e-03  -2.930908e-03  0 
 5.719734e-04  -1.733656e-03  0 
 1.106083e-03  -3.491009e-03  0 
 1.072109e-03  -3.440643e-03  0 
 1.116715e-03  -3.510986e-03  0 
 1.141921e-03  -3.489804e-03  0 
 1.168272e-03  -3.474831e-03  0 
 1.736073e-03  -3.020393e-03  0 
 7.027589e-04  -3.328985e-03  0 
 1.295012e-03  -3.069586e-03  0 
 1.727863e-03  -3.169546e-03  0 
 1.115167e-03  -3.795653e-03  0 
 8.346431e-04  -2.266389e-03  0 
 1.233576e-03  -3.280739e-03  0 
VECTORS displacement_ITER19 FLOAT
 1.383267e-05  -1.953321e-03  0 
 9.367526e-04  -2.726481e-03  0 
 5.358767e-04  -2.567996e-03  0 
 6.798481e-04  -2.737234e-03  0 
 7.475089e-04  -2.031533e-03  0 
 1.282331e-03  -2.313536e-03  0 
 1.374456e-03  -2.613636e-03  0 
 7.863954e-04  -2.917980e-03  0 
 1.069955e-03  -2.482368e-03  0 
 1.073599e-03  -2.119776e-03  0 
 8.897165e-04  -1.454885e-03  0 
 8.462760e-04  -1.594238e-03  0 
 1.188181e-03  -1.923667e-03  0 
 5.411236e-04  -2.117613e-04  0 
 8.222905e-04  -1.155259e-03  0 
 4.691970e-04  -2.745864e-04  0 
 7.980698e-04  -9.705104e-04  0 
 1.194262e-03  -2.436227e-03  0 
 4.343572e-04  -1.492842e-03  0 
 7.179892e-04  -2.774241e-03  0 
 7.171789e-04  -2.599325e-03  0 
 8.447902e-04  -2.904124e-03  0 
 9.130368e-04  -2.741440e-03  0 
 7.635631e-04  -2.883297e-03  0 
 1.324749e-03  -2.402519e-03  0 
 6.137157e-04  -2.707378e-03  0 
 1.106696e-03  -2.494432e-03  0 
 1.439179e-03  -2.555987e-03  0 
 9.566239e-04  -3.088657e-03  0 
 1.381260e-03  -3.243696e-03  0 
 1.032906e-03  -2.953774e-03  0 
VECTORS displacement_ITER20 FLOAT
 7.745467e-04  -2.256089e-03  0 
 1.087572e-03  -3.017094e-03  0 
 6.876187e-04  -1.168127e-03  0 
 8.310310e-04  -2.182711e-03  0 
 1.344251e-03  -2.334026e-03  0 
 1.719845e-03  -2.610661e-03  0 
 1.663140e-03  -2.904663e-03  0 
 1.783138e-03  -3.208380e-03  0 
 1.222991e-03  -2.635265e-03  0 
 9.865752e-04  -2.101531e-03  0 
 1.384848e-03  -1.992254e-03  0 
 1.024454e-03  -2.016740e-03  0 
 1.402303e-03  -2.218044e-03  0 
 1.237358e-03  -1.445416e-03  0 
 1.140974e-03  -1.930672e-03  0 
 1.039508e-03  -1.657503e-03  0 
 1.246121e-03  -1.815281e-03  0 
 1.206711e-03  -2.548007e-03  0 
 1.106449e-03  -2.106530e-03  0 
 1.472870e-03  -1.961934e-03  0 
 1.631277e-03  -1.195757e-03  0 
 2.151869e-03  -2.612742e-03  0 
 2.425270e-03  -1.779817e-03  0 
 1.435417e-03  -2.667993e-03  0 
 1.583904e-03  -2.549834e-03  0 
 1.246297e-03  -2.844660e-03  0 
 1.620315e-03  -2.687391e-03  0 
 1.834869e-03  -2.705194e-03  0 
 1.506397e-03  -3.124955e-03  0 
 1.728760e-03  -3.285142e-03  0 
 1.483079e-03  -3.226686e-03  0 
VECTORS displacement_ITER21 FLOAT
 6.121107e-04  -2.216309e-03  0 
 1.416993e-03  -2.967739e-03  0 
 1.016737e-03  -1.016482e-03  0 
 1.160638e-03  -2.081932e-03  0 
 1.296123e-03  -2.294325e-03  0 
 1.789921e-03  -2.566992e-03  0 
 1.859491e-03  -2.856344e-03  0 
 2.163149e-03  -3.156973e-03  0 
 1.553997e-03  -2.719510e-03  0 
 1.098405e-03  -2.089214e-03  0 
 1.351741e-03  -1.999691e-03  0 
 1.076038e-03  -2.038212e-03  0 
 1.469087e-03  -2.199157e-03  0 
 1.214566e-03  -1.690602e-03  0 
 1.155481e-03  -1.984564e-03  0 
 1.064345e-03  -1.887633e-03  0 
 1.238273e-03  -1.894510e-03  0 
 1.390728e-03  -2.522676e-03  0 
 1.037673e-03  -2.149811e-03  0 
 1.839020e-03  -1.845903e-03  0 
 2.007046e-03  -1.044613e-03  0 
 2.550363e-03  -2.526945e-03  0 
 2.835985e-03  -1.654516e-03  0 
 1.796506e-03  -2.587332e-03  0 
 1.809821e-03  -2.635211e-03  0 
 1.172887e-03  -2.923210e-03  0 
 1.631645e-03  -2.726661e-03  0 
 1.936128e-03  -2.781323e-03  0 
 1.492971e-03  -3.278133e-03  0 
 1.336173e-03  -2.426817e-03  0 
 1.635675e-03  -3.115837e-03  0 
VECTORS displacement_ITER22 FLOAT
 7.392581e-04  -1.625078e-03  0 
 1.699042e-03  -2.373055e-03  0 
 1.296362e-03  -2.221450e-03  0 
 1.441846e-03  -2.386608e-03  0 
 1.456400e-03  -1.704786e-03  0 
 1.985714e-03  -1.975992e-03  0 
 2.096523e-03  -2.262509e-03  0 
 1.544113e-03  -2.561069e-03  0 
 1.838311e-03  -2.171984e-03  0 
 1.538032e-03  -2.104200e-03  0 
 1.463888e-03  -1.432670e-03  0 
 1.247112e-03  -1.892714e-03  0 
 1.764456e-03  -1.825678e-03  0 
 9.658749e-04  -7.175189e-04  0 
 1.305544e-03  -1.436678e-03  0 
 9.851193e-04  -8.404170e-04  0 
 1.327576e-03  -1.222110e-03  0 
 1.786418e-03  -2.248582e-03  0 
 1.049232e-03  -1.404454e-03  0 
 1.477673e-03  -2.425308e-03  0 
 1.476634e-03  -2.253112e-03  0 
 1.600589e-03  -2.550870e-03  0 
 1.668063e-03  -2.391650e-03  0 
 1.523713e-03  -2.530762e-03  0 
 2.057021e-03  -2.086527e-03  0 
 1.326589e-03  -2.368298e-03  0 
 1.809642e-03  -2.161068e-03  0 
 2.141226e-03  -2.228088e-03  0 
 1.664248e-03  -2.745037e-03  0 
 1.270967e-03  -2.468715e-03  0 
 1.501433e-03  -2.525243e-03  0 
VECTORS displacement_ITER23 FLOAT
 1.610531e-03  -1.410578e-03  0 
 2.128754e-03  -2.154306e-03  0 
 1.724071e-03  -2.941620e-03  0 
 1.870606e-03  -2.637422e-03  0 
 2.208682e-03  -1.492191e-03  0 
 2.622181e-03  -1.761026e-03  0 
 2.625690e-03  -2.043639e-03  0 
 1.504412e-03  -2.343675e-03  0 
 2.270629e-03  -1.854918e-03  0 
 2.109955e-03  -2.241521e-03  0 
 2.130398e-03  -1.209452e-03  0 
 1.676192e-03  -2.003035e-03  0 
 2.388494e-03  -1.727392e-03  0 
 1.405893e-03  -1.299958e-04  0 
 1.832550e-03  -1.279613e-03  0 
 1.397784e-03  -3.316315e-04  0 
 1.904729e-03  -9.384099e-04  0 
 2.340083e-03  -2.211221e-03  0 
 1.735148e-03  -1.029739e-03  0 
 1.571501e-03  -2.819305e-03  0 
 1.482809e-03  -2.974062e-03  0 
 1.388421e-03  -2.656099e-03  0 
 1.342715e-03  -2.867178e-03  0 
 1.663815e-03  -2.593551e-03  0 
 2.565122e-03  -1.764408e-03  0 
 2.105930e-03  -2.035446e-03  0 
 2.501792e-03  -1.869801e-03  0 
 2.747332e-03  -1.906050e-03  0 
 2.383258e-03  -2.338303e-03  0 
 2.386256e-03  -3.614724e-03  0 
 1.958337e-03  -2.335849e-03  0 
VECTORS displacement_ITER24 FLOAT
 1.048050e-03  -1.422057e-03  0 
 2.408956e-03  -2.155654e-03  0 
 2.002515e-03  -2.785801e-03  0 
 2.150045e-03  -2.560748e-03  0 
 1.844993e-03  -1.503909e-03  0 
 2.462359e-03  -1.767740e-03  0 
 2.681165e-03  -2.044930e-03  0 
 1.863167e-03  -2.345866e-03  0 
 2.552789e-03  -2.080352e-03  0 
 2.131208e-03  -2.200701e-03  0 
 1.890127e-03  -1.135455e-03  0 
 1.641261e-03  -1.936245e-03  0 
 2.278931e-03  -1.683646e-03  0 
 1.387499e-03  -3.007737e-04  0 
 1.667347e-03  -1.265676e-03  0 
 1.252737e-03  -5.712756e-04  0 
 1.706541e-03  -9.329645e-04  0 
 2.431660e-03  -2.194499e-03  0 
 1.477687e-03  -1.068450e-03  0 
 1.907461e-03  -2.719095e-03  0 
 1.833952e-03  -2.818297e-03  0 
 1.775882e-03  -2.604360e-03  0 
 1.749709e-03  -2.752470e-03  0 
 1.992125e-03  -2.548706e-03  0 
 2.670904e-03  -1.992211e-03  0 
 1.698401e-03  -2.251877e-03  0 
 2.241078e-03  -2.018438e-03  0 
 2.641633e-03  -2.118165e-03  0 
 2.079556e-03  -2.683797e-03  0 
 2.792635e-03  -3.228413e-03  0 
 2.389914e-03  -2.264510e-03  0 
VECTORS displacement_ITER25 FLOAT
 8.635162e-04  -1.330241e-03  0 
 2.003280e-03  -2.048368e-03  0 
 1.595051e-03  -1.532040e-03  0 
 1.743477e-03  -1.881280e-03  0 
 1.586676e-03  -1.412566e-03  0 
 2.137625e-03  -1.668689e-03  0 
 2.307748e-03  -1.937166e-03  0 
 2.031385e-03  -2.240906e-03  0 
 2.150255e-03  -1.939776e-03  0 
 1.562012e-03  -1.812076e-03  0 
 1.636063e-03  -1.098299e-03  0 
 1.254793e-03  -1.714673e-03  0 
 1.829115e-03  -1.532065e-03  0 
 1.491636e-03  -8.089510e-04  0 
 1.280514e-03  -1.391206e-03  0 
 1.072822e-03  -1.223320e-03  0 
 1.415761e-03  -1.115666e-03  0 
 1.916936e-03  -1.935268e-03  0 
 1.414370e-03  -1.151294e-03  0 
 1.910754e-03  -1.865286e-03  0 
 1.945638e-03  -1.562438e-03  0 
 2.154584e-03  -2.104631e-03  0 
 2.268288e-03  -1.796807e-03  0 
 1.939252e-03  -2.099951e-03  0 
 2.291939e-03  -1.847046e-03  0 
 1.456413e-03  -2.088035e-03  0 
 1.946383e-03  -1.880156e-03  0 
 2.299951e-03  -1.966236e-03  0 
 1.801834e-03  -2.477680e-03  0 
 3.060634e-03  -2.957830e-03  0 
 2.407712e-03  -2.046634e-03  0 
VECTORS displacement_ITER26 FLOAT
 6.127454e-04  -1.167955e-03  0 
 2.004211e-03  -1.875337e-03  0 
 1.593551e-03  -1.287680e-03  0 
 1.743343e-03  -1.673466e-03  0 
 1.384197e-03  -1.251541e-03  0 
 1.989329e-03  -1.502030e-03  0 
 2.227961e-03  -1.763615e-03  0 
 2.067956e-03  -2.069675e-03  0 
 2.153544e-03  -1.846276e-03  0 
 1.528631e-03  -1.578426e-03  0 
 1.450957e-03  -9.294463e-04  0 
 1.234525e-03  -1.433420e-03  0 
 1.717383e-03  -1.344667e-03  0 
 1.302726e-03  -6.985457e-04  0 
 1.188810e-03  -1.166663e-03  0 
 9.554814e-04  -1.017197e-03  0 
 1.268371e-03  -9.355773e-04  0 
 1.875592e-03  -1.734111e-03  0 
 1.209117e-03  -9.776369e-04  0 
 1.936620e-03  -1.647083e-03  0 
 1.978833e-03  -1.318209e-03  0 
 2.204395e-03  -1.908780e-03  0 
 2.327659e-03  -1.571317e-03  0 
 1.961657e-03  -1.906984e-03  0 
 2.231138e-03  -1.752485e-03  0 
 1.243804e-03  -1.978357e-03  0 
 1.769967e-03  -1.754588e-03  0 
 2.166284e-03  -1.861304e-03  0 
 1.615753e-03  -2.401687e-03  0 
 2.924930e-03  -1.939090e-03  0 
 2.441942e-03  -1.724875e-03  0 
VECTORS displacement_ITER27 FLOAT
 1.187120e-04  -1.245723e-03  0 
 2.013403e-03  -1.946261e-03  0 
 1.600786e-03  -1.943143e-03  0 
 1.752022e-03  -2.036856e-03  0 
 1.006012e-03  -1.331058e-03  0 
 1.730856e-03  -1.578174e-03  0 
 2.099120e-03  -1.834743e-03  0 
 1.784450e-03  -2.140537e-03  0 
 2.164334e-03  -2.054896e-03  0 
 1.593795e-03  -1.668632e-03  0 
 1.073357e-03  -9.116705e-04  0 
 1.166856e-03  -1.259375e-03  0 
 1.592270e-03  -1.370103e-03  0 
 5.826364e-04  -2.331771e-04  0 
 1.033215e-03  -8.564078e-04  0 
 5.792280e-04  -2.721451e-04  0 
 9.604671e-04  -6.674598e-04  0 
 1.898355e-03  -1.832511e-03  0 
 6.454772e-04  -8.506075e-04  0 
 1.736797e-03  -2.100270e-03  0 
 1.724204e-03  -1.975852e-03  0 
 1.813373e-03  -2.181257e-03  0 
 1.865992e-03  -2.075547e-03  0 
 1.790598e-03  -2.153176e-03  0 
 2.133269e-03  -1.962137e-03  0 
 8.409660e-04  -2.177308e-03  0 
 1.452156e-03  -1.914723e-03  0 
 1.939397e-03  -2.059844e-03  0 
 1.273576e-03  -2.675550e-03  0 