# vtk DataFile Version 3.1
this is an vtk file created by FEMAC
ASCII
DATASET UNSTRUCTURED_GRID
POINTS 33 FLOAT
3.000000 2.000000 0.000000
4.000000 3.000000 0.000000
2.750000 2.000000 0.000000
3.000000 1.750000 0.000000
3.000000 2.250000 0.000000
3.000000 2.500000 0.000000
3.250000 2.000000 0.000000
3.500000 2.000000 0.000000
3.750000 2.000000 0.000000
3.500000 3.000000 0.000000
3.750000 3.000000 0.000000
2.832250 1.761003 0.000000
2.844330 2.155709 0.000000
3.165495 1.828528 0.000000
3.400214 1.786986 0.000000
3.237145 1.579099 0.000000
3.646988 1.793399 0.000000
3.817501 1.632951 0.000000
3.559152 1.528294 0.000000
3.842898 1.835270 0.000000
3.786897 2.360864 0.000000
3.255000 2.805000 0.000000
3.165198 2.171305 0.000000
3.645168 2.822337 0.000000
3.344773 2.161848 0.000000
3.574936 2.222548 0.000000
3.183310 2.629173 0.000000
3.436531 2.678490 0.000000
3.532441 2.462106 0.000000
3.749641 2.630999 0.000000
3.828962 2.840667 0.000000
3.836478 2.155331 0.000000
3.279649 2.384434 0.000000
CELLS 43 172 
3 2 11  0
3 11  3  0
3 12  2  0
3 4 12  0
3 6 14  7
3 13 14  6
3 13  0  3
3 6  0 13
3 13  3 15
3 15 14 13
3 7 16  8
3 16  7 14
3 18 16 14
3 19  8 16
3 16 17 19
3 17 16 18
3 24  6  7
3 8 25  7
3 23 10  9
3 28 25 20
3 26 27 21
3 24 22  6
3 27  9 21
3 23  9 27
3 23 27 29
3 0 22  4
3 0  6 22
3 10 30  1
3 23 30 10
3 31 25  8
3 20 25 31
3 24  7 25
3 28 29 27
3 32 26  5
3 4 32  5
3 4 22 32
3 28 20 29
3 24 32 22
3 24 25 32
3 26 32 27
3 28 27 32
3 28 32 25
3 23 29 30
CELL_TYPES 43
5 5 5 5 5 5 5 5 5 5 5 5 5 5 5 5 5 5 5 5 5 5 5 5 5 5 5 5 5 5 5 5 5 5 5 5 5 5 5 5 5 5 5 
POINT_DATA 33
VECTORS displacement_ITER1 FLOAT
 -2.248185e-02  -1.105504e-01  0 
 -1.179511e-02  -2.310874e-01  0 
 -2.251755e-02  -8.589260e-02  0 
 -5.330290e-02  -1.105672e-01  0 
 2.074680e-03  -1.105320e-01  0 
 -6.688096e-03  -1.239828e-01  0 
 -2.246918e-02  -1.414132e-01  0 
 -2.246494e-02  -1.722718e-01  0 
 -2.247219e-02  -2.031361e-01  0 
 -1.847459e-02  -1.719036e-01  0 
 -1.154331e-02  -1.885856e-01  0 
 -4.533736e-02  -8.074877e-02  0 
 -7.173549e-03  -9.522429e-02  0 
 -4.362630e-02  -1.309778e-01  0 
 -4.875216e-02  -1.599513e-01  0 
 -7.439135e-02  -1.398257e-01  0 
 -4.796501e-02  -1.904273e-01  0 
 -6.777443e-02  -2.114905e-01  0 
 -8.069221e-02  -1.795875e-01  0 
 -4.280297e-02  -2.146150e-01  0 
 -6.301436e-03  -1.893307e-01  0 
 -1.087580e-02  -1.616802e-01  0 
 -8.158324e-03  -1.338817e-01  0 
 -1.392332e-02  -1.767873e-01  0 
 -1.007841e-02  -1.532498e-01  0 
 -8.201475e-03  -1.769166e-01  0 
 -6.355572e-03  -1.491602e-01  0 
 -6.254423e-03  -1.663216e-01  0 
 -2.437395e-03  -1.697771e-01  0 
 -7.335964e-03  -1.799806e-01  0 
 -1.639389e-02  -1.935308e-01  0 
 -1.708694e-02  -2.037893e-01  0 
 -9.252440e-04  -1.463812e-01  0 
VECTORS displacement_ITER2 FLOAT
 -1.741993e-03  -1.058984e-01  0 
 2.750771e-03  -1.820119e-01  0 
 -1.774215e-03  -8.788779e-02  0 
 -2.504461e-02  -1.059350e-01  0 
 1.616235e-02  -1.058591e-01  0 
 1.060920e-02  -1.127901e-01  0 
 -1.732284e-03  -1.292565e-01  0 
 -1.732147e-03  -1.525973e-01  0 
 -1.741339e-03  -1.759435e-01  0 
 6.973177e-03  -1.539141e-01  0 
 8.682032e-03  -1.645427e-01  0 
 -1.720861e-02  -8.365196e-02  0 
 9.426123e-03  -9.470485e-02  0 
 -1.773423e-02  -1.213634e-01  0 
 -2.161084e-02  -1.432805e-01  0 
 -4.099260e-02  -1.280614e-01  0 
 -2.101792e-02  -1.663306e-01  0 
 -3.599254e-02  -1.822545e-01  0 
 -4.575884e-02  -1.581333e-01  0 
 -1.711579e-02  -1.846218e-01  0 
 1.265341e-02  -1.701785e-01  0 
 1.168460e-02  -1.452837e-01  0 
 8.804260e-03  -1.233174e-01  0 
 1.000979e-02  -1.588278e-01  0 
 7.419403e-03  -1.381859e-01  0 
 9.309455e-03  -1.572148e-01  0 
 1.322310e-02  -1.344172e-01  0 
 1.468147e-02  -1.498087e-01  0 
 1.542558e-02  -1.529233e-01  0 
 1.387942e-02  -1.629934e-01  0 
 7.782843e-03  -1.694667e-01  0 
 3.993148e-03  -1.798930e-01  0 
 1.455486e-02  -1.327353e-01  0 
VECTORS displacement_ITER3 FLOAT
 -2.505496e-02  -7.336114e-02  0 
 -4.241307e-03  -1.053920e-01  0 
 -2.507773e-02  -6.628985e-02  0 
 -3.557607e-02  -7.343031e-02  0 
 -1.809125e-02  -7.328197e-02  0 
 -9.199267e-03  -6.308088e-02  0 
 -2.505326e-02  -8.395743e-02  0 
 -2.506393e-02  -9.450915e-02  0 
 -2.507855e-02  -1.050586e-01  0 
 7.285378e-03  -9.249499e-02  0 
 3.831000e-03  -1.059649e-01  0 
 -2.867437e-02  -6.467479e-02  0 
 -2.069567e-02  -6.896481e-02  0 
 -3.228758e-02  -8.038852e-02  0 
 -3.403850e-02  -9.030525e-02  0 
 -4.278219e-02  -8.342870e-02  0 
 -3.377471e-02  -1.007161e-01  0 
 -4.051771e-02  -1.078903e-01  0 
 -4.492170e-02  -9.701457e-02  0 
 -3.201711e-02  -1.089693e-01  0 
 -1.244446e-02  -1.138102e-01  0 
 1.653417e-03  -8.323338e-02  0 
 -2.043775e-02  -8.034959e-02  0 
 9.414902e-04  -1.036825e-01  0 
 -2.093399e-02  -8.789417e-02  0 
 -1.882249e-02  -9.933009e-02  0 
 -4.367132e-03  -7.764990e-02  0 
 -2.561122e-03  -9.324746e-02  0 
 -1.093994e-02  -9.926867e-02  0 
 -4.940751e-03  -1.118163e-01  0 
 4.642121e-04  -1.127282e-01  0 
 -1.819930e-02  -1.149069e-01  0 
 -1.543158e-02  -8.445318e-02  0 
VECTORS displacement_ITER4 FLOAT
 -3.436740e-02  -7.335104e-02  0 
 -6.074306e-03  -8.472644e-02  0 
 -3.438410e-02  -6.953367e-02  0 
 -4.027242e-02  -7.343319e-02  0 
 -3.065475e-02  -7.325584e-02  0 
 -1.483337e-02  -5.635448e-02  0 
 -3.437116e-02  -7.933747e-02  0 
 -3.439011e-02  -8.526356e-02  0 
 -3.441106e-02  -9.117808e-02  0 
 6.049889e-03  -7.959626e-02  0 
 1.451488e-03  -9.220181e-02  0 
 -3.392646e-02  -6.964978e-02  0 
 -3.203088e-02  -7.097330e-02  0 
 -3.843643e-02  -7.733186e-02  0 
 -3.941842e-02  -8.291229e-02  0 
 -4.431955e-02  -7.904970e-02  0 
 -3.927343e-02  -8.874697e-02  0 
 -4.303216e-02  -9.275060e-02  0 
 -4.549548e-02  -8.667141e-02  0 
 -3.829428e-02  -9.336244e-02  0 
 -2.193620e-02  -1.038125e-01  0 
 -1.780962e-03  -7.136933e-02  0 
 -3.131770e-02  -7.641274e-02  0 
 -2.489590e-03  -9.194615e-02  0 
 -3.151742e-02  -8.131230e-02  0 
 -2.923913e-02  -8.969915e-02  0 
 -9.705536e-03  -6.783686e-02  0 
 -8.194417e-03  -8.272132e-02  0 
 -2.019431e-02  -9.029592e-02  0 
 -1.178992e-02  -1.021013e-01  0 
 -2.544597e-03  -9.921256e-02  0 
 -2.695321e-02  -1.024097e-01  0 
 -2.574133e-02  -7.839785e-02  0 
VECTORS displacement_ITER5 FLOAT
 -3.202271e-02  -5.481526e-02  0 
 6.071066e-04  -6.028129e-02  0 
 -3.203756e-02  -5.370840e-02  0 
 -3.368251e-02  -5.490413e-02  0 
 -3.102871e-02  -5.470672e-02  0 
 -1.657379e-02  -3.657595e-02  0 
 -3.203157e-02  -5.656183e-02  0 
 -3.206401e-02  -5.822499e-02  0 
 -3.209752e-02  -5.985217e-02  0 
 -6.884042e-04  -5.144167e-02  0 
 -1.667063e-04  -6.083731e-02  0 
 -2.802133e-02  -5.376706e-02  0 
 -3.137629e-02  -5.412170e-02  0 
 -3.317967e-02  -5.599265e-02  0 
 -3.345059e-02  -5.758555e-02  0 
 -3.482396e-02  -5.649080e-02  0 
 -3.341202e-02  -5.919432e-02  0 
 -3.440724e-02  -6.026686e-02  0 
 -3.508178e-02  -5.861570e-02  0 
 -3.315518e-02  -6.044326e-02  0 
 -2.303714e-02  -7.104628e-02  0 
 -5.952729e-03  -4.664209e-02  0 
 -3.062090e-02  -5.470595e-02  0 
 -6.203190e-03  -5.972752e-02  0 
 -3.071547e-02  -5.657191e-02  0 
 -2.902751e-02  -6.088341e-02  0 
 -1.211135e-02  -4.444973e-02  0 
 -1.093489e-02  -5.490618e-02  0 
 -2.184356e-02  -6.163442e-02  0 
 -1.471048e-02  -6.914931e-02  0 
 -5.502303e-03  -6.563328e-02  0 
 -2.618166e-02  -6.889025e-02  0 
 -2.685539e-02  -5.424999e-02  0 
VECTORS displacement_ITER6 FLOAT
 -2.213383e-02  -3.806679e-02  0 
 2.230957e-02  -5.484427e-02  0 
 -2.214810e-02  -3.848437e-02  0 
 -2.101944e-02  -3.815933e-02  0 
 -2.267276e-02  -3.794602e-02  0 
 -6.809805e-03  -1.769823e-02  0 
 -2.214577e-02  -3.704262e-02  0 
 -2.218747e-02  -3.591696e-02  0 
 -2.222852e-02  -3.473542e-02  0 
 7.178998e-03  -2.565430e-02  0 
 1.222645e-02  -3.907629e-02  0 
 -1.633619e-02  -3.889339e-02  0 
 -2.243894e-02  -3.832008e-02  0 
 -2.138690e-02  -3.741181e-02  0 
 -2.119137e-02  -3.639772e-02  0 
 -2.026092e-02  -3.711158e-02  0 
 -2.122036e-02  -3.523875e-02  0 
 -2.040454e-02  -3.439083e-02  0 
 -1.990894e-02  -3.563871e-02  0 
 -2.143552e-02  -3.428269e-02  0 
 -1.579034e-02  -4.440002e-02  0 
 1.478765e-03  -2.201551e-02  0 
 -2.166480e-02  -3.586707e-02  0 
 7.088466e-04  -3.410687e-02  0 
 -2.175937e-02  -3.577070e-02  0 
 -2.058632e-02  -3.729359e-02  0 
 -4.073911e-03  -2.215389e-02  0 
 -4.232620e-03  -3.048520e-02  0 
 -1.494357e-02  -3.773697e-02  0 
 -8.596855e-03  -4.322534e-02  0 
 2.450609e-03  -4.274080e-02  0 
 -1.760657e-02  -4.180784e-02  0 
 -1.887461e-02  -3.371733e-02  0 
VECTORS displacement_ITER7 FLOAT
 -1.081449e-02  -2.498471e-02  0 
 6.586494e-03  3.389813e-03  0 
 -1.082736e-02  -1.580762e-02  0 
 -1.721129e-02  -2.507588e-02  0 
 -1.759772e-03  -2.486917e-02  0 
 1.292264e-02  -1.468467e-02  0 
 -1.083028e-02  -3.146728e-02  0 
 -1.087967e-02  -3.783553e-02  0 
 -1.092905e-02  -4.413304e-02  0 
 3.326921e-03  -1.706847e-02  0 
 2.724928e-03  -1.032934e-02  0 
 -1.263782e-02  -1.880122e-02  0 
 -5.144245e-03  -1.926321e-02  0 
 -1.521779e-02  -2.930063e-02  0 
 -1.626678e-02  -3.533185e-02  0 
 -2.158281e-02  -3.114996e-02  0 
 -1.610139e-02  -4.156135e-02  0 
 -2.008378e-02  -4.581628e-02  0 
 -2.272406e-02  -3.932814e-02  0 
 -1.506640e-02  -4.646509e-02  0 
 9.049544e-04  -4.125906e-02  0 
 1.233350e-02  -2.375589e-02  0 
 -4.003775e-03  -2.796708e-02  0 
 8.918354e-03  -1.742779e-02  0 
 -4.531276e-03  -3.243702e-02  0 
 -2.500386e-03  -3.751359e-02  0 
 1.418695e-02  -2.093901e-02  0 
 1.332901e-02  -2.456671e-02  0 
 6.432841e-03  -3.145427e-02  0 
 7.976712e-03  -2.704827e-02  0 
 6.846802e-03  -1.057685e-02  0 
 -4.727756e-03  -4.641618e-02  0 
 4.400478e-03  -2.845881e-02  0 
VECTORS displacement_ITER8 FLOAT
 -1.673181e-02  -2.188912e-02  0 
 1.425468e-02  -2.997120e-02  0 
 -1.674001e-02  -1.711914e-02  0 
 -1.758864e-02  -2.198410e-02  0 
 -1.208903e-02  -2.176342e-02  0 
 -3.381859e-03  -1.126427e-02  0 
 -1.675397e-02  -2.283067e-02  0 
 -1.680986e-02  -2.364375e-02  0 
 -1.685839e-02  -2.437731e-02  0 
 -1.692708e-03  -1.549276e-02  0 
 3.503188e-03  -1.946144e-02  0 
 -1.336959e-02  -1.801426e-02  0 
 -1.380497e-02  -1.890839e-02  0 
 -1.733565e-02  -2.253974e-02  0 
 -1.746057e-02  -2.336097e-02  0 
 -1.816609e-02  -2.279721e-02  0 
 -1.743526e-02  -2.409456e-02  0 
 -1.784108e-02  -2.454596e-02  0 
 -1.815156e-02  -2.381336e-02  0 
 -1.732962e-02  -2.463642e-02  0 
 -9.312426e-03  -2.858939e-02  0 
 -2.305698e-05  -1.584979e-02  0 
 -1.344824e-02  -2.186706e-02  0 
 -1.223005e-03  -1.754030e-02  0 
 -1.401694e-02  -2.244889e-02  0 
 -1.285698e-02  -2.427695e-02  0 
 -1.434441e-03  -1.457507e-02  0 
 -1.427212e-03  -1.876627e-02  0 
 -7.485471e-03  -2.313310e-02  0 
 -4.659637e-03  -2.383765e-02  0 
 -7.170160e-04  -2.006315e-02  0 
 -1.197737e-02  -2.882013e-02  0 
 -9.902827e-03  -2.039001e-02  0 
VECTORS displacement_ITER9 FLOAT
 -1.161049e-02  -1.493465e-02  0 
 1.576492e-02  -3.019141e-02  0 
 -1.161281e-02  -1.187477e-02  0 
 -1.016168e-02  -1.503158e-02  0 
 -8.679375e-03  -1.480147e-02  0 
 -3.956101e-03  -5.678614e-03  0 
 -1.163909e-02  -1.356615e-02  0 
 -1.169985e-02  -1.205899e-02  0 
 -1.174749e-02  -1.046726e-02  0 
 2.201690e-03  -1.103401e-02  0 
 7.001759e-03  -1.748213e-02  0 
 -6.567693e-03  -1.150157e-02  0 
 -9.745736e-03  -1.301492e-02  0 
 -1.063313e-02  -1.405889e-02  0 
 -1.037256e-02  -1.270541e-02  0 
 -9.155859e-03  -1.365218e-02  0 
 -1.040579e-02  -1.114067e-02  0 
 -9.318378e-03  -1.000290e-02  0 
 -8.654035e-03  -1.167552e-02  0 
 -1.068807e-02  -9.860441e-03  0 
 -6.448677e-03  -1.744252e-02  0 
 2.361697e-04  -7.796125e-03  0 
 -9.839771e-03  -1.382433e-02  0 
 4.868668e-04  -1.349395e-02  0 
 -1.047236e-02  -1.269521e-02  0 
 -9.789739e-03  -1.308025e-02  0 
 -2.281538e-03  -7.193104e-03  0 
 -1.823885e-03  -1.148198e-02  0 
 -6.442973e-03  -1.407822e-02  0 
 -3.240911e-03  -1.723593e-02  0 
 1.738798e-03  -1.825382e-02  0 
 -7.602010e-03  -1.562743e-02  0 
 -8.755079e-03  -1.156305e-02  0 
VECTORS displacement_ITER10 FLOAT
 -9.427038e-03  -1.054681e-02  0 
 -1.596432e-02  2.080173e-02  0 
 -9.425872e-03  -3.476707e-04  0 
 -1.509394e-02  -1.064068e-02  0 
 6.461814e-04  -1.041987e-02  0 
 3.389770e-03  -9.747752e-03  0 
 -9.458990e-03  -1.628641e-02  0 
 -9.521282e-03  -2.188640e-02  0 
 -9.571203e-03  -2.740101e-02  0 
 -5.972173e-03  -1.588639e-02  0 
 -1.013740e-02  -4.140079e-03  0 
 -1.153323e-02  -1.006852e-03  0 
 -3.113651e-03  -4.180811e-03  0 
 -1.332971e-02  -1.437768e-02  0 
 -1.425156e-02  -1.969803e-02  0 
 -1.894880e-02  -1.600914e-02  0 
 -1.410351e-02  -2.515002e-02  0 
 -1.758267e-02  -2.886596e-02  0 
 -1.989351e-02  -2.318870e-02  0 
 -1.319715e-02  -2.944087e-02  0 
 1.839763e-04  -2.533244e-02  0 
 1.673225e-03  -1.808990e-02  0 
 -2.940402e-03  -1.435861e-02  0 
 1.083851e-03  -1.239142e-02  0 
 -3.838339e-03  -1.768724e-02  0 
 -2.422552e-03  -2.209036e-02  0 
 4.307244e-03  -1.423362e-02  0 
 4.964216e-03  -1.647627e-02  0 
 3.555302e-03  -1.836184e-02  0 
 3.846358e-03  -1.590267e-02  0 
 -1.140758e-03  -3.402658e-03  0 
 -4.157628e-03  -2.949129e-02  0 
 2.242450e-03  -1.490670e-02  0 
VECTORS displacement_ITER11 FLOAT
 -1.016153e-02  -7.278258e-03  0 
 1.072529e-02  -3.988019e-02  0 
 -1.015449e-02  -7.592458e-03  0 
 -5.676646e-03  -7.378078e-03  0 
 -1.060927e-02  -7.131811e-03  0 
 -1.324501e-02  2.266224e-04  0 
 -1.020018e-02  -2.866581e-03  0 
 -1.026735e-02  1.697389e-03  0 
 -1.031332e-02  6.353419e-03  0 
 6.190648e-04  -7.838806e-03  0 
 5.728093e-03  -2.005702e-02  0 
 -2.834349e-03  -4.293301e-03  0 
 -1.039416e-02  -7.453741e-03  0 
 -7.102260e-03  -4.392355e-03  0 
 -6.333971e-03  -1.731219e-04  0 
 -2.584879e-03  -3.110541e-03  0 
 -6.443897e-03  4.419584e-03  0 
 -3.390495e-03  7.649394e-03  0 
 -1.442530e-03  2.809692e-03  0 
 -7.237054e-03  8.099986e-03  0 
 -9.956842e-03  -3.599082e-03  0 
 -7.866438e-03  1.816767e-03  0 
 -1.122635e-02  -4.769365e-03  0 
 -5.156559e-03  -1.154091e-02  0 
 -1.197434e-02  -1.258942e-03  0 
 -1.237841e-02  4.376270e-04  0 
 -1.217831e-02  1.156260e-03  0 
 -1.112048e-02  -3.612149e-03  0 
 -1.309677e-02  -3.672427e-03  0 
 -9.619319e-03  -1.112637e-02  0 
 -2.481967e-03  -2.174059e-02  0 
 -8.386099e-03  1.070157e-03  0 
 -1.491634e-02  -1.187250e-03  0 
VECTORS displacement_ITER12 FLOAT
 -5.723412e-03  -4.590746e-03  0 
 -8.606029e-03  -4.405563e-04  0 
 -5.710384e-03  1.460763e-03  0 
 -7.436865e-03  -4.689002e-03  0 
 2.036842e-04  -4.449488e-03  0 
 -6.985166e-04  -2.673436e-03  0 
 -5.766914e-03  -6.368382e-03  0 
 -5.836025e-03  -7.992298e-03  0 
 -5.884262e-03  -9.522257e-03  0 
 -1.909187e-03  -6.861961e-03  0 
 -3.760361e-03  -6.313775e-03  0 
 -4.681514e-03  3.223123e-03  0 
 -1.985870e-03  -7.994706e-04  0 
 -6.915396e-03  -5.804183e-03  0 
 -7.176974e-03  -7.395093e-03  0 
 -8.577335e-03  -6.296893e-03  0 
 -7.128296e-03  -8.910412e-03  0 
 -8.048699e-03  -9.903829e-03  0 
 -8.691911e-03  -8.346682e-03  0 
 -6.886020e-03  -1.007921e-02  0 
 -1.787151e-03  -1.029140e-02  0 
 -1.507346e-03  -3.941456e-03  0 
 -2.396445e-03  -6.087243e-03  0 
 -1.312389e-03  -7.539980e-03  0 
 -3.371979e-03  -6.569243e-03  0 
 -3.152971e-03  -8.120662e-03  0 
 -1.296632e-03  -3.167880e-03  0 
 -1.258139e-03  -5.926647e-03  0 
 -1.348045e-03  -6.993596e-03  0 
 -8.602130e-04  -8.379700e-03  0 
 -1.748603e-03  -7.192351e-03  0 
 -3.021963e-03  -1.143317e-02  0 
 -1.642146e-03  -4.750678e-03  0 
VECTORS displacement_ITER13 FLOAT
 -5.286944e-03  -7.508665e-03  0 
 -6.680227e-03  -1.327346e-02  0 
 -5.265544e-03  -3.391153e-03  0 
 -5.366923e-03  -7.612658e-03  0 
 -1.292030e-03  -7.357361e-03  0 
 -3.617545e-03  -5.173498e-03  0 
 -5.338232e-03  -7.648574e-03  0 
 -5.411636e-03  -7.625937e-03  0 
 -5.460398e-03  -7.504208e-03  0 
 -3.824982e-03  -4.569312e-03  0 
 -4.258191e-03  -8.627185e-03  0 
 -2.846856e-03  -6.446492e-04  0 
 -2.748794e-03  -4.915782e-03  0 
 -5.360065e-03  -7.642278e-03  0 
 -5.348819e-03  -7.688754e-03  0 
 -5.383503e-03  -7.664278e-03  0 
 -5.341055e-03  -7.572717e-03  0 
 -5.199590e-03  -7.436262e-03  0 
 -5.152608e-03  -7.587974e-03  0 
 -5.374014e-03  -7.446894e-03  0 
 -4.599419e-03  -7.498217e-03  0 
 -5.024029e-03  -1.955300e-03  0 
 -3.309828e-03  -7.867339e-03  0 
 -5.530413e-03  -7.214734e-03  0 
 -4.301631e-03  -7.129452e-03  0 
 -4.735303e-03  -7.067417e-03  0 
 -5.226181e-03  -3.216386e-03  0 
 -5.948250e-03  -4.980787e-03  0 
 -5.105631e-03  -6.172250e-03  0 
 -5.504696e-03  -7.400248e-03  0 
 -5.470033e-03  -9.961244e-03  0 
 -4.240563e-03  -8.139899e-03  0 
 -4.431041e-03  -5.467201e-03  0 
VECTORS displacement_ITER14 FLOAT
 -3.980203e-03  -5.231667e-03  0 
 -7.267411e-03  -5.449221e-03  0 
 -3.954969e-03  -6.373749e-04  0 
 -5.176895e-03  -5.338483e-03  0 
 4.928911e-04  -5.076474e-03  0 
 -7.862612e-04  -3.355801e-03  0 
 -4.034218e-03  -6.487093e-03  0 
 -4.108941e-03  -7.577942e-03  0 
 -4.159647e-03  -8.568151e-03  0 
 -3.435149e-03  -9.498276e-04  0 
 -4.548096e-03  -3.336664e-03  0 
 -2.672134e-03  1.948488e-03  0 
 -1.142887e-03  -2.339091e-03  0 
 -4.820130e-03  -6.105549e-03  0 
 -4.994492e-03  -7.197435e-03  0 
 -5.954750e-03  -6.447306e-03  0 
 -4.958346e-03  -8.180339e-03  0 
 -5.530299e-03  -8.802718e-03  0 
 -5.950140e-03  -7.804462e-03  0 
 -4.805862e-03  -8.925499e-03  0 
 -3.132814e-03  -6.083168e-03  0 
 -3.270671e-03  1.691510e-04  0 
 -1.505714e-03  -6.101208e-03  0 
 -4.361321e-03  -3.316271e-03  0 
 -2.443489e-03  -6.136523e-03  0 
 -2.814333e-03  -6.489946e-03  0 
 -2.745649e-03  -1.314417e-03  0 
 -3.842554e-03  -2.490539e-03  0 
 -2.909016e-03  -4.311410e-03  0 
 -3.907225e-03  -4.062843e-03  0 
 -4.757643e-03  -4.508131e-03  0 
 -3.141597e-03  -7.969781e-03  0 
 -1.830282e-03  -4.031747e-03  0 
VECTORS displacement_ITER15 FLOAT
 -2.972674e-03  -6.737840e-03  0 
 -1.792272e-03  -1.130497e-02  0 
 -2.940882e-03  -4.687710e-03  0 
 -3.004900e-03  -6.851679e-03  0 
 -1.044700e-03  -6.571075e-03  0 
 -1.373081e-03  -3.643838e-03  0 
 -3.031110e-03  -6.829829e-03  0 
 -3.108142e-03  -6.752031e-03  0 
 -3.160928e-03  -6.570582e-03  0 
 -2.109458e-03  -8.430688e-04  0 
 -1.672848e-03  -4.875150e-03  0 
 -5.373264e-04  -1.401768e-03  0 
 -1.717066e-03  -5.424065e-03  0 
 -3.015784e-03  -6.844693e-03  0 
 -2.996212e-03  -6.839407e-03  0 
 -2.983280e-03  -6.852037e-03  0 
 -2.989736e-03  -6.666594e-03  0 
 -2.806591e-03  -6.487016e-03  0 
 -2.737890e-03  -6.700924e-03  0 
 -3.033955e-03  -6.491981e-03  0 
 -3.618137e-03  -4.557528e-03  0 
 -3.340348e-03  1.340041e-03  0 
 -1.942756e-03  -6.546347e-03  0 
 -3.960585e-03  -3.300096e-03  0 
 -2.578027e-03  -5.984552e-03  0 
 -3.058973e-03  -5.460785e-03  0 
 -3.314397e-03  -8.215408e-04  0 
 -4.512154e-03  -1.915248e-03  0 
 -3.967331e-03  -3.855136e-03  0 
 -4.596597e-03  -3.945310e-03  0 
 -3.771369e-03  -5.919248e-03  0 
 -2.876213e-03  -5.651727e-03  0 
 -2.971476e-03  -4.297480e-03  0 
VECTORS displacement_ITER16 FLOAT
 -2.305797e-03  -8.040565e-03  0 
 -6.914629e-04  -4.797085e-03  0 
 -2.267503e-03  -7.009305e-03  0 
 -2.056651e-03  -8.162063e-03  0 
 -1.395717e-03  -7.863750e-03  0 
 1.695418e-03  -4.290002e-03  0 
 -2.367832e-03  -7.852833e-03  0 
 -2.446178e-03  -7.489585e-03  0 
 -2.498599e-03  -7.020834e-03  0 
 1.188408e-03  -5.306494e-03  0 
 6.646193e-04  -6.369216e-03  0 
 4.342929e-04  -4.071744e-03  0 
 -1.681515e-03  -7.355507e-03  0 
 -2.157714e-03  -7.965078e-03  0 
 -2.090496e-03  -7.691493e-03  0 
 -1.839167e-03  -7.890811e-03  0 
 -2.090057e-03  -7.233588e-03  0 
 -1.717989e-03  -6.852195e-03  0 
 -1.530123e-03  -7.367370e-03  0 
 -2.181034e-03  -6.832338e-03  0 
 -1.188846e-03  -7.163033e-03  0 
 1.271645e-04  -1.352630e-03  0 
 -1.636392e-03  -7.490447e-03  0 
 4.505939e-04  -6.128125e-03  0 
 -1.856587e-03  -7.149872e-03  0 
 -1.711120e-03  -6.897205e-03  0 
 1.540610e-04  -2.364133e-03  0 
 -7.012099e-04  -4.455455e-03  0 
 -1.346223e-03  -6.050686e-03  0 
 -5.674552e-04  -6.778499e-03  0 
 7.095264e-04  -6.700607e-03  0 
 -1.142335e-03  -7.454009e-03  0 
 -1.325539e-03  -6.267264e-03  0 
VECTORS displacement_ITER17 FLOAT
 -2.897284e-03  -7.041309e-03  0 
 1.588879e-03  -5.771737e-03  0 
 -2.855247e-03  -6.546921e-03  0 
 -2.880321e-03  -7.168080e-03  0 
 -2.526590e-03  -6.857427e-03  0 
 1.116025e-03  -4.187418e-03  0 
 -2.960547e-03  -7.088425e-03  0 
 -3.038910e-03  -6.956949e-03  0 
 -3.091668e-03  -6.719320e-03  0 
 1.421236e-04  -6.298578e-03  0 
 6.568497e-04  -6.249886e-03  0 
 -3.699262e-04  -3.870910e-03  0 
 -2.606755e-03  -6.687080e-03  0 
 -2.909641e-03  -7.122759e-03  0 
 -2.880617e-03  -7.066274e-03  0 
 -2.820147e-03  -7.115110e-03  0 
 -2.873953e-03  -6.837166e-03  0 
 -2.649373e-03  -6.612726e-03  0 
 -2.559452e-03  -6.889249e-03  0 
 -2.926250e-03  -6.616634e-03  0 
 -1.186248e-03  -6.899908e-03  0 
 -2.862053e-04  -2.296011e-03  0 
 -2.419340e-03  -6.571356e-03  0 
 4.374046e-04  -5.839769e-03  0 
 -2.391361e-03  -6.548878e-03  0 
 -1.960701e-03  -6.520702e-03  0 
 1.727699e-05  -2.752927e-03  0 
 -5.677532e-04  -4.663443e-03  0 
 -1.287558e-03  -5.888700e-03  0 
 -3.556034e-04  -6.365208e-03  0 
 8.111583e-04  -5.901107e-03  0 
 -1.462323e-03  -7.209127e-03  0 
 -1.572607e-03  -6.055524e-03  0 
VECTORS displacement_ITER18 FLOAT
 -2.806899e-03  -6.114708e-03  0 
 1.395648e-03  -6.689575e-03  0 
 -2.762231e-03  -5.860602e-03  0 
 -2.973238e-03  -6.245947e-03  0 
 -2.680176e-03  -5.924644e-03  0 
 4.971156e-04  -3.950715e-03  0 
 -2.870918e-03  -6.347659e-03  0 
 -2.948853e-03  -6.399370e-03  0 
 -3.001194e-03  -6.345225e-03  0 
 -1.230594e-03  -6.454771e-03  0 
 -2.296261e-04  -5.831545e-03  0 
 -4.723798e-04  -3.434593e-03  0 
 -2.666127e-03  -5.907578e-03  0 
 -2.945955e-03  -6.320265e-03  0 
 -2.946985e-03  -6.435079e-03  0 
 -3.036961e-03  -6.365186e-03  0 
 -2.935319e-03  -6.387239e-03  0 
 -2.828234e-03  -6.287580e-03  0 
 -2.815760e-03  -6.374592e-03  0 
 -2.956563e-03  -6.310646e-03  0 
 -1.147196e-03  -6.436455e-03  0 
 -1.059698e-03  -2.775120e-03  0 
 -2.475968e-03  -5.804342e-03  0 
 -3.325142e-04  -5.437000e-03  0 
 -2.360950e-03  -5.940181e-03  0 
 -1.873751e-03  -6.055724e-03  0 
 -4.440767e-04  -2.918612e-03  0 
 -9.392539e-04  -4.620092e-03  0 
 -1.350175e-03  -5.569770e-03  0 
 -6.880359e-04  -5.862898e-03  0 
 -8.109680e-05  -5.408542e-03  0 
 -1.404028e-03  -6.825589e-03  0 
 -1.651905e-03  -5.636301e-03  0 
VECTORS displacement_ITER19 FLOAT
 -2.164825e-03  -5.884782e-03  0 
 -7.365449e-04  -5.357517e-03  0 
 -2.117039e-03  -5.683030e-03  0 
 -2.218564e-03  -6.021976e-03  0 
 -2.094939e-03  -5.686680e-03  0 
 4.722661e-04  -3.831190e-03  0 
 -2.230241e-03  -6.008031e-03  0 
 -2.307966e-03  -5.945489e-03  0 
 -2.359061e-03  -5.777444e-03  0 
 -1.017100e-03  -5.942330e-03  0 
 -8.444778e-04  -5.105764e-03  0 
 1.854561e-04  -3.815994e-03  0 
 -2.056609e-03  -5.707152e-03  0 
 -2.227884e-03  -6.019346e-03  0 
 -2.209422e-03  -6.026296e-03  0 
 -2.202695e-03  -6.031864e-03  0 
 -2.200008e-03  -5.865215e-03  0 
 -2.019223e-03  -5.686415e-03  0 
 -1.959298e-03  -5.892323e-03  0 
 -2.239226e-03  -5.699726e-03  0 
 -8.169185e-04  -6.268359e-03  0 
 -8.037853e-04  -2.763206e-03  0 
 -1.949236e-03  -5.580933e-03  0 
 -4.292265e-04  -5.374139e-03  0 
 -1.877384e-03  -5.631166e-03  0 
 -1.476127e-03  -5.740551e-03  0 
 -3.292174e-04  -2.943713e-03  0 
 -8.187537e-04  -4.584989e-03  0 
 -1.120349e-03  -5.443292e-03  0 
 -6.153858e-04  -5.868352e-03  0 
 -5.192215e-04  -5.242422e-03  0 
 -8.956682e-04  -6.490993e-03  0 
 -1.386353e-03  -5.376322e-03  0 
VECTORS displacement_ITER20 FLOAT
 -2.642893e-03  -5.331704e-03  0 
 -4.198851e-04  -7.716071e-03  0 
 -2.594433e-03  -4.933417e-03  0 
 -2.885124e-03  -5.472584e-03  0 
 -2.383117e-03  -5.126854e-03  0 
 -5.029153e-04  -3.288356e-03  0 
 -2.707936e-03  -5.646864e-03  0 
 -2.784876e-03  -5.773458e-03  0 
 -2.835718e-03  -5.794568e-03  0 
 -3.779727e-04  -4.573226e-03  0 
 -3.653290e-04  -5.252708e-03  0 
 -8.139753e-04  -3.684073e-03  0 
 -2.414042e-03  -5.030360e-03  0 
 -2.835764e-03  -5.593876e-03  0 
 -2.847929e-03  -5.778058e-03  0 
 -2.996865e-03  -5.660853e-03  0 
 -2.833371e-03  -5.804755e-03  0 
 -2.774987e-03  -5.756466e-03  0 
 -2.795130e-03  -5.765125e-03  0 
 -2.840897e-03  -5.788106e-03  0 
 -1.713445e-03  -5.833461e-03  0 
 -9.594856e-04  -1.680342e-03  0 
 -2.366965e-03  -5.166796e-03  0 
 -9.144855e-04  -5.079930e-03  0 
 -2.400049e-03  -5.276519e-03  0 
 -2.172502e-03  -5.446438e-03  0 
 -1.045723e-03  -2.322940e-03  0 
 -1.561740e-03  -3.931396e-03  0 
 -1.974952e-03  -5.001808e-03  0 
 -1.515155e-03  -5.670521e-03  0 
 -9.968767e-04  -5.855087e-03  0 
 -1.745619e-03  -6.132087e-03  0 
 -2.082444e-03  -4.753363e-03  0 
VECTORS displacement_ITER21 FLOAT
 -2.579888e-03  -4.752197e-03  0 
 -1.530809e-03  -5.635547e-03  0 
 -2.530696e-03  -3.890298e-03  0 
 -2.919670e-03  -4.896605e-03  0 
 -1.862083e-03  -4.542102e-03  0 
 -8.503971e-04  -4.008913e-03  0 
 -2.644403e-03  -5.168001e-03  0 
 -2.720214e-03  -5.392280e-03  0 
 -2.769993e-03  -5.511232e-03  0 
 -2.070094e-04  -4.639064e-03  0 
 -7.601317e-04  -5.051227e-03  0 
 -1.206327e-03  -3.443609e-03  0 
 -2.063843e-03  -4.160833e-03  0 
 -2.840059e-03  -5.081411e-03  0 
 -2.867456e-03  -5.356773e-03  0 
 -3.096351e-03  -5.176360e-03  0 
 -2.849528e-03  -5.480427e-03  0 
 -2.854237e-03  -5.499067e-03  0 
 -2.916321e-03  -5.405532e-03  0 
 -2.839949e-03  -5.541160e-03  0 
 -1.326637e-03  -5.624012e-03  0 
 -6.610633e-04  -2.394782e-03  0 
 -2.068867e-03  -4.760966e-03  0 
 -6.942086e-04  -5.164285e-03  0 
 -2.139751e-03  -4.924086e-03  0 
 -1.879872e-03  -5.180113e-03  0 
 -9.448242e-04  -2.980641e-03  0 
 -1.203064e-03  -4.185195e-03  0 
 -1.453695e-03  -4.829763e-03  0 
 -9.784347e-04  -5.420245e-03  0 
 -7.641464e-04  -5.428034e-03  0 
 -1.589307e-03  -5.903861e-03  0 
 -1.615633e-03  -4.489135e-03  0 
VECTORS displacement_ITER22 FLOAT
 -2.166039e-03  -4.481468e-03  0 
 -4.699351e-04  -5.722027e-03  0 
 -2.115786e-03  -3.053130e-03  0 
 -2.527120e-03  -4.630789e-03  0 
 -8.894105e-04  -4.263361e-03  0 
 -5.882762e-04  -4.595028e-03  0 
 -2.230256e-03  -4.922625e-03  0 
 -2.305093e-03  -5.167640e-03  0 
 -2.353990e-03  -5.306766e-03  0 
 7.107762e-04  -4.457688e-03  0 
 2.335596e-04  -5.270605e-03  0 
 -1.341882e-03  -3.667522e-03  0 
 -1.299121e-03  -3.535497e-03  0 
 -2.441373e-03  -4.828196e-03  0 
 -2.470839e-03  -5.122679e-03  0 
 -2.715612e-03  -4.928969e-03  0 
 -2.451148e-03  -5.266978e-03  0 
 -2.468603e-03  -5.299197e-03  0 
 -2.540735e-03  -5.183409e-03  0 
 -2.437389e-03  -5.344144e-03  0 
 -7.937578e-04  -5.527833e-03  0 
 2.289061e-04  -2.797744e-03  0 
 -1.389673e-03  -4.618260e-03  0 
 7.104859e-05  -5.146719e-03  0 
 -1.564122e-03  -4.771080e-03  0 
 -1.362393e-03  -5.058423e-03  0 
 -3.026082e-04  -3.452646e-03  0 
 -4.124878e-04  -4.282855e-03  0 
 -7.136508e-04  -4.735628e-03  0 
 -2.453679e-04  -5.304976e-03  0 
 1.065550e-04  -5.536267e-03  0 
 -1.229772e-03  -5.733852e-03  0 
 -8.350009e-04  -4.318077e-03  0 
VECTORS displacement_ITER23 FLOAT
 -1.943578e-03  -4.044569e-03  0 
 6.616449e-04  -5.805079e-03  0 
 -1.892896e-03  -2.471243e-03  0 
 -2.261909e-03  -4.197251e-03  0 
 -5.295309e-04  -3.819129e-03  0 
 -7.996814e-04  -4.577601e-03  0 
 -2.007135e-03  -4.446445e-03  0 
 -2.081106e-03  -4.648566e-03  0 
 -2.130146e-03  -4.743238e-03  0 
 -6.017159e-05  -4.215134e-03  0 
 3.299339e-04  -4.783633e-03  0 
 -1.684112e-03  -3.751871e-03  0 
 -9.885482e-04  -3.007042e-03  0 
 -2.189740e-03  -4.365567e-03  0 
 -2.210589e-03  -4.619707e-03  0 
 -2.418865e-03  -4.453527e-03  0 
 -2.190804e-03  -4.722159e-03  0 
 -2.179714e-03  -4.724986e-03  0 
 -2.235749e-03  -4.652029e-03  0 
 -2.184401e-03  -4.764922e-03  0 
 -9.760188e-04  -4.456531e-03  0 
 -2.639780e-04  -2.994092e-03  0 
 -1.135027e-03  -4.209413e-03  0 
 -2.178980e-04  -4.216647e-03  0 
 -1.358866e-03  -4.306234e-03  0 
 -1.289666e-03  -4.422016e-03  0 
 -4.742521e-04  -3.547620e-03  0 
 -5.655204e-04  -3.773221e-03  0 
 -7.263607e-04  -4.012086e-03  0 
 -4.772729e-04  -4.168457e-03  0 
 -8.519116e-06  -4.633057e-03  0 
 -1.409506e-03  -4.713906e-03  0 
 -6.786811e-04  -3.856135e-03  0 
VECTORS displacement_ITER24 FLOAT
 -1.562662e-03  -3.670560e-03  0 
 5.959084e-04  -5.120109e-03  0 
 -1.511772e-03  -2.003402e-03  0 
 -2.105460e-03  -3.826527e-03  0 
 -6.168835e-05  -3.438322e-03  0 
 -5.348655e-04  -3.985900e-03  0 
 -1.626082e-03  -4.299826e-03  0 
 -1.699423e-03  -4.726213e-03  0 
 -1.748267e-03  -5.043859e-03  0 
 1.070753e-04  -4.591372e-03  0 
 5.370795e-04  -4.891741e-03  0 
 -1.849075e-03  -3.474952e-03  0 
 -5.511864e-04  -2.573759e-03  0 
 -1.963100e-03  -4.142562e-03  0 
 -2.020082e-03  -4.607043e-03  0 
 -2.413911e-03  -4.294437e-03  0 
 -1.993430e-03  -4.930930e-03  0 
 -2.125124e-03  -5.086150e-03  0 
 -2.276456e-03  -4.780786e-03  0 
 -1.949318e-03  -5.148747e-03  0 
 -8.135817e-04  -4.593873e-03  0 
 4.096309e-05  -3.312206e-03  0 
 -7.399147e-04  -4.016737e-03  0 
 1.550385e-04  -4.340108e-03  0 
 -1.007985e-03  -4.261609e-03  0 
 -1.037615e-03  -4.523564e-03  0 
 -6.242447e-05  -3.575003e-03  0 
 -1.348882e-04  -3.883887e-03  0 
 -4.110953e-04  -4.080860e-03  0 
 -1.499289e-04  -4.301672e-03  0 
 3.474836e-04  -4.710353e-03  0 
 -1.332692e-03  -4.866175e-03  0 
 -3.634623e-04  -3.716453e-03  0 
VECTORS displacement_ITER25 FLOAT
 -1.487761e-03  -2.798449e-03  0 
 -1.855128e-04  -5.231021e-03  0 
 -1.436062e-03  -1.687935e-03  0 
 -2.026217e-03  -2.959695e-03  0 
 -5.510208e-04  -2.557818e-03  0 
 -1.375107e-03  -2.652173e-03  0 
 -1.551582e-03  -3.427011e-03  0 
 -1.623691e-03  -3.849905e-03  0 
 -1.671696e-03  -4.164816e-03  0 
 -1.515435e-04  -4.360781e-03  0 
 1.734786e-05  -4.895502e-03  0 
 -1.917656e-03  -2.844922e-03  0 
 -8.249618e-04  -2.046959e-03  0 
 -1.886277e-03  -3.271146e-03  0 
 -1.941990e-03  -3.730892e-03  0 
 -2.329415e-03  -3.422110e-03  0 
 -1.915010e-03  -4.052800e-03  0 
 -2.045515e-03  -4.206953e-03  0 
 -2.196810e-03  -3.903101e-03  0 
 -1.871063e-03  -4.269109e-03  0 
 -1.119408e-03  -4.121051e-03  0 
 -2.318295e-04  -3.158572e-03  0 