# vtk DataFile Version 3.1
this is an vtk file created by FEMAC
ASCII
DATASET UNSTRUCTURED_GRID
POINTS 31 FLOAT
2.000000 4.000000 0.000000
2.000000 5.000000 0.000000
1.500000 5.000000 0.000000
1.750000 5.000000 0.000000
2.000000 4.250000 0.000000
2.000000 4.500000 0.000000
2.000000 4.750000 0.000000
2.000000 5.250000 0.000000
2.250000 5.000000 0.000000
1.668552 4.802393 0.000000
1.825071 4.338322 0.000000
1.500000 4.775000 0.000000
1.800052 4.608882 0.000000
1.613228 4.205045 0.000000
1.561048 4.603297 0.000000
1.418444 4.423893 0.000000
1.643569 4.435888 0.000000
1.843721 4.832255 0.000000
1.837660 4.158674 0.000000
1.674167 5.178356 0.000000
1.500000 5.225000 0.000000
1.828194 5.341416 0.000000
1.630720 5.401594 0.000000
1.850472 5.153954 0.000000
2.255000 4.805000 0.000000
2.255000 4.195000 0.000000
2.169567 4.378219 0.000000
2.242859 4.565925 0.000000
2.413341 4.323754 0.000000
2.371000 5.200321 0.000000
2.169413 5.172421 0.000000
CELLS 42 168 
3 2 9 3
3 5 10  4
3 11  9  2
3 14  9 11
3 6 12  5
3 16 13 10
3 9 14 12
3 12 10  5
3 16 10 12
3 12 14 16
3 3 17  1
3 17  6  1
3 17  3  9
3 18  4 10
3 4 18  0
3 17 12  6
3 9 12 17
3 10 13 18
3 16 14 15
3 16 15 13
3 19  2  3
3 19 20  2
3 19 22 20
3 21 22 19
3 23  3  1
3 7 23  1
3 3 23 19
3 21 23  7
3 21 19 23
3 4 26  5
3 27  6  5
3 28 26 25
3 27 24  6
3 25 26  4
3 24  1  6
3 8  1 24
3 0 25  4
3 5 26 27
3 27 26 28
3 30  7  1
3 8 30  1
3 30  8 29
CELL_TYPES 42
5 5 5 5 5 5 5 5 5 5 5 5 5 5 5 5 5 5 5 5 5 5 5 5 5 5 5 5 5 5 5 5 5 5 5 5 5 5 5 5 5 5 
POINT_DATA 31
VECTORS displacement_ITER1 FLOAT
 3.782240e-02  -7.636903e-02  0 
 3.357803e-02  -7.644337e-02  0 
 3.350404e-02  -5.064034e-02  0 
 3.353485e-02  -6.356485e-02  0 
 3.677330e-02  -7.637653e-02  0 
 3.571720e-02  -7.639984e-02  0 
 3.464584e-02  -7.642651e-02  0 
 4.644701e-02  -7.648340e-02  0 
 3.362748e-02  -7.543500e-02  0 
 2.389669e-02  -6.213521e-02  0 
 3.393931e-02  -6.643575e-02  0 
 1.501662e-02  -4.779214e-02  0 
 2.996862e-02  -6.597736e-02  0 
 3.328922e-02  -5.546059e-02  0 
 2.258063e-02  -5.521627e-02  0 
 2.563777e-02  -5.608308e-02  0 
 2.890313e-02  -5.815510e-02  0 
 2.986408e-02  -7.099493e-02  0 
 3.588385e-02  -6.895619e-02  0 
 4.273510e-02  -5.965973e-02  0 
 4.513724e-02  -5.064879e-02  0 
 5.116353e-02  -6.762176e-02  0 
 5.427425e-02  -5.741591e-02  0 
 4.148584e-02  -6.876492e-02  0 
 3.442610e-02  -7.535840e-02  0 
 3.701086e-02  -7.531628e-02  0 
 3.624259e-02  -7.568069e-02  0 
 3.545041e-02  -7.538366e-02  0 
 3.648456e-02  -7.466996e-02  0 
 8.015594e-02  -1.377122e-01  0 
 4.886980e-02  -8.420047e-02  0 
VECTORS displacement_ITER2 FLOAT
 2.252891e-02  -3.709058e-02  0 
 3.861434e-02  -3.768807e-02  0 
 3.844706e-02  -5.860394e-02  0 
 3.850328e-02  -4.817633e-02  0 
 2.692084e-02  -3.718483e-02  0 
 3.114461e-02  -3.742038e-02  0 
 3.505057e-02  -3.763341e-02  0 
 2.804921e-02  -3.775893e-02  0 
 3.865332e-02  -4.133060e-02  0 
 2.757038e-02  -4.062556e-02  0 
 2.425535e-02  -2.759017e-02  0 
 9.740417e-03  -2.253906e-02  0 
 2.836383e-02  -3.304516e-02  0 
 1.459804e-02  -1.011105e-02  0 
 1.546733e-02  -1.951930e-02  0 
 1.207393e-02  -1.111313e-02  0 
 1.938353e-02  -1.856282e-02  0 
 3.432468e-02  -4.138762e-02  0 
 2.169316e-02  -2.577550e-02  0 
 3.104109e-02  -5.137240e-02  0 
 2.908799e-02  -5.863281e-02  0 
 2.424131e-02  -4.494492e-02  0 
 2.174581e-02  -5.315031e-02  0 
 3.207806e-02  -4.402091e-02  0 
 3.585188e-02  -4.140431e-02  0 
 2.599844e-02  -4.160765e-02  0 
 2.916102e-02  -4.015040e-02  0 
 3.227004e-02  -4.133020e-02  0 
 2.823148e-02  -4.431469e-02  0 
 4.265345e-02  -4.639894e-02  0 
 3.725841e-02  -3.948087e-02  0 
VECTORS displacement_ITER3 FLOAT
 1.117217e-02  -1.606777e-02  0 
 6.868319e-03  -1.670915e-02  0 
 6.481734e-03  -1.509163e-02  0 
 6.625547e-03  -1.598179e-02  0 
 1.060414e-02  -1.616001e-02  0 
 9.821972e-03  -1.642751e-02  0 
 8.606475e-03  -1.667269e-02  0 
 7.430913e-03  -1.685091e-02  0 
 6.953907e-03  -1.514620e-02  0 
 4.154248e-03  -1.506101e-02  0 
 8.356832e-03  -1.425172e-02  0 
 -3.083404e-04  -1.002646e-02  0 
 7.151497e-03  -1.459131e-02  0 
 5.504733e-03  -1.055525e-02  0 
 3.675306e-03  -1.113116e-02  0 
 4.401423e-03  -9.917595e-03  0 
 6.142418e-03  -1.176904e-02  0 
 6.486505e-03  -1.662105e-02  0 
 8.816777e-03  -1.384527e-02  0 
 7.189979e-03  -1.579218e-02  0 
 7.339148e-03  -1.512914e-02  0 
 7.759390e-03  -1.633010e-02  0 
 8.007137e-03  -1.559079e-02  0 
 7.151388e-03  -1.640516e-02  0 
 8.235138e-03  -1.511313e-02  0 
 1.076620e-02  -1.551095e-02  0 
 1.028599e-02  -1.573591e-02  0 
 9.614633e-03  -1.539682e-02  0 
 1.042216e-02  -1.506247e-02  0 
 2.271271e-02  2.571459e-03  0 
 1.422070e-02  -1.164781e-02  0 
VECTORS displacement_ITER4 FLOAT
 6.293090e-03  -3.060470e-03  0 
 2.042949e-03  -3.971543e-03  0 
 1.565295e-03  -1.924911e-03  0 
 1.743211e-03  -3.079586e-03  0 
 5.833084e-03  -3.178373e-03  0 
 5.143028e-03  -3.516039e-03  0 
 3.914884e-03  -3.854792e-03  0 
 2.768789e-03  -4.185304e-03  0 
 2.148830e-03  -2.262386e-03  0 
 2.447570e-03  -3.494134e-03  0 
 4.443482e-03  -3.978779e-03  0 
 2.429470e-03  -3.404850e-03  0 
 3.896485e-03  -3.820508e-03  0 
 1.474668e-03  -2.160737e-03  0 
 3.351387e-03  -3.796455e-03  0 
 2.224924e-03  -1.568501e-03  0 
 3.600059e-03  -3.576713e-03  0 
 2.745009e-03  -3.807889e-03  0 
 4.421681e-03  -3.154787e-03  0 
 2.467514e-03  -2.834793e-03  0 
 2.668824e-03  -1.973250e-03  0 
 3.191127e-03  -3.528578e-03  0 
 3.527272e-03  -2.582050e-03  0 
 2.408297e-03  -3.611592e-03  0 
 3.543739e-03  -2.212576e-03  0 
 5.968344e-03  -2.648346e-03  0 
 5.581266e-03  -2.835730e-03  0 
 4.969903e-03  -2.503384e-03  0 
 5.684594e-03  -2.259422e-03  0 
 7.004194e-03  -3.373504e-03  0 
 4.089717e-03  -1.573359e-03  0 
VECTORS displacement_ITER5 FLOAT
 2.652696e-03  -5.746136e-04  0 
 1.960938e-03  -1.469010e-03  0 
 1.458071e-03  -1.702107e-03  0 
 1.647110e-03  -1.712719e-03  0 
 3.049858e-03  -7.055857e-04  0 
 3.236901e-03  -1.030745e-03  0 
 2.920145e-03  -1.351307e-03  0 
 1.542824e-03  -1.690306e-03  0 
 2.079414e-03  -6.796794e-04  0 
 2.328721e-03  -1.699894e-03  0 
 2.586281e-03  -1.241110e-03  0 
 2.382347e-03  -1.913729e-03  0 
 2.764926e-03  -1.492631e-03  0 
 1.113495e-03  -3.466870e-04  0 
 2.400786e-03  -1.547171e-03  0 
 1.262907e-03  2.024142e-04  0 
 2.215891e-03  -1.166770e-03  0 
 2.419096e-03  -1.580312e-03  0 
 2.462250e-03  -1.010202e-03  0 
 1.560652e-03  -1.817551e-03  0 
 1.552756e-03  -1.744030e-03  0 
 1.555605e-03  -1.812683e-03  0 
 1.626792e-03  -1.744958e-03  0 
 1.616963e-03  -1.795647e-03  0 
 2.753363e-03  -6.433831e-04  0 
 2.996509e-03  -1.065542e-03  0 
 3.242845e-03  -9.568323e-04  0 
 3.293655e-03  -8.900136e-04  0 
 3.156006e-03  -1.233479e-03  0 
 3.398699e-03  7.498020e-04  0 
 2.560855e-03  3.390780e-04  0 
VECTORS displacement_ITER6 FLOAT
 5.496750e-04  -1.208353e-03  0 
 1.656050e-03  -1.881624e-03  0 
 1.185617e-03  -1.689681e-03  0 
 1.366281e-03  -1.889111e-03  0 
 1.163476e-03  -1.345195e-03  0 
 1.647943e-03  -1.572141e-03  0 
 1.862820e-03  -1.774042e-03  0 
 1.498310e-03  -2.098544e-03  0 
 1.838132e-03  -1.887944e-03  0 
 1.444604e-03  -1.654145e-03  0 
 1.191278e-03  -1.110318e-03  0 
 1.301567e-03  -1.668622e-03  0 
 1.558460e-03  -1.437172e-03  0 
 7.797227e-04  -6.684327e-04  0 
 1.262518e-03  -1.218868e-03  0 
 8.613076e-04  -6.169085e-04  0 
 1.146413e-03  -1.016545e-03  0 
 1.643983e-03  -1.746840e-03  0 
 8.706794e-04  -9.342655e-04  0 
 1.424895e-03  -1.933102e-03  0 
 1.423103e-03  -1.750118e-03  0 
 1.566520e-03  -2.056960e-03  0 
 1.623881e-03  -1.899249e-03  0 
 1.469199e-03  -2.052168e-03  0 
 1.874682e-03  -1.772081e-03  0 
 1.071032e-03  -1.943808e-03  0 
 1.479324e-03  -1.774099e-03  0 
 1.787499e-03  -1.872663e-03  0 
 1.363834e-03  -2.279625e-03  0 
 2.137587e-03  -1.764503e-03  0 
 1.865883e-03  -2.033053e-03  0 
VECTORS displacement_ITER7 FLOAT
 7.657056e-04  -1.492047e-03  0 
 1.599676e-03  -2.092238e-03  0 
 1.126680e-03  -1.730694e-03  0 
 1.315936e-03  -2.001564e-03  0 
 1.220967e-03  -1.630713e-03  0 
 1.563741e-03  -1.822377e-03  0 
 1.735739e-03  -1.982850e-03  0 
 1.553016e-03  -2.303623e-03  0 
 1.795775e-03  -2.162741e-03  0 
 1.327338e-03  -1.712797e-03  0 
 1.103774e-03  -1.420940e-03  0 
 1.117114e-03  -1.486714e-03  0 
 1.442286e-03  -1.631523e-03  0 
 4.285257e-04  -7.404679e-04  0 
 1.145703e-03  -1.277151e-03  0 
 6.187516e-04  -4.339728e-04  0 
 1.010035e-03  -1.162604e-03  0 
 1.535975e-03  -1.901697e-03  0 
 8.252074e-04  -1.188646e-03  0 
 1.427608e-03  -2.032298e-03  0 
 1.443976e-03  -1.783312e-03  0 
 1.623791e-03  -2.220851e-03  0 
 1.710411e-03  -1.974536e-03  0 
 1.477341e-03  -2.200999e-03  0 
 1.775714e-03  -2.029384e-03  0 
 1.175602e-03  -2.051468e-03  0 
 1.453607e-03  -1.955535e-03  0 
 1.671905e-03  -2.051597e-03  0 
 1.387830e-03  -2.299971e-03  0 
 1.893276e-03  -2.024026e-03  0 
 1.748913e-03  -2.188477e-03  0 
VECTORS displacement_ITER8 FLOAT
 8.764426e-04  -1.252054e-03  0 
 1.436504e-03  -1.855447e-03  0 
 1.015305e-03  -1.536724e-03  0 
 1.181837e-03  -1.779980e-03  0 
 1.243023e-03  -1.412081e-03  0 
 1.478597e-03  -1.608469e-03  0 
 1.568010e-03  -1.747801e-03  0 
 1.387620e-03  -2.053364e-03  0 
 1.626934e-03  -1.915022e-03  0 
 1.120599e-03  -1.534267e-03  0 
 1.103578e-03  -1.177287e-03  0 
 8.574342e-04  -1.255766e-03  0 
 1.283522e-03  -1.435660e-03  0 
 7.207538e-04  -7.920480e-04  0 
 9.441758e-04  -1.126016e-03  0 
 6.368486e-04  -6.900753e-04  0 
 9.404677e-04  -1.044214e-03  0 
 1.352243e-03  -1.700894e-03  0 
 9.450223e-04  -9.759131e-04  0 
 1.284771e-03  -1.802427e-03  0 
 1.299722e-03  -1.588907e-03  0 
 1.454577e-03  -1.959118e-03  0 
 1.523773e-03  -1.748733e-03  0 
 1.322440e-03  -1.955284e-03  0 
 1.611929e-03  -1.774190e-03  0 
 1.231534e-03  -1.727060e-03  0 
 1.422830e-03  -1.675015e-03  0 
 1.553408e-03  -1.747478e-03  0 
 1.389402e-03  -1.909255e-03  0 
 2.002495e-03  -1.871331e-03  0 
 1.677300e-03  -1.934299e-03  0 
VECTORS displacement_ITER9 FLOAT
 8.317248e-04  -1.168907e-03  0 
 1.433319e-03  -1.778778e-03  0 
 1.011493e-03  -1.501721e-03  0 
 1.179529e-03  -1.722578e-03  0 
 1.236045e-03  -1.335660e-03  0 
 1.476284e-03  -1.530315e-03  0 
 1.573223e-03  -1.668886e-03  0 
 1.367452e-03  -1.978867e-03  0 
 1.618840e-03  -1.825394e-03  0 
 1.196123e-03  -1.491689e-03  0 
 1.081538e-03  -1.162082e-03  0 
 1.012071e-03  -1.239614e-03  0 
 1.286036e-03  -1.422089e-03  0 
 6.521673e-04  -7.913498e-04  0 
 9.578764e-04  -1.137652e-03  0 
 5.623515e-04  -6.551103e-04  0 
 9.097287e-04  -1.051233e-03  0 
 1.380405e-03  -1.635990e-03  0 
 9.155086e-04  -9.691862e-04  0 
 1.268858e-03  -1.751531e-03  0 
 1.282443e-03  -1.552396e-03  0 
 1.423859e-03  -1.892955e-03  0 
 1.489534e-03  -1.695268e-03  0 
 1.308115e-03  -1.889137e-03  0 
 1.615744e-03  -1.691296e-03  0 
 1.227937e-03  -1.664038e-03  0 
 1.415885e-03  -1.603649e-03  0 
 1.552404e-03  -1.675149e-03  0 
 1.373321e-03  -1.835813e-03  0 
 1.832262e-03  -1.710315e-03  0 
 1.606823e-03  -1.816479e-03  0 
VECTORS displacement_ITER10 FLOAT
 8.447708e-04  -1.156166e-03  0 
 1.432773e-03  -1.770340e-03  0 
 1.010810e-03  -1.494592e-03  0 
 1.178733e-03  -1.715587e-03  0 
 1.244825e-03  -1.324888e-03  0 
 1.482635e-03  -1.519441e-03  0 
 1.577077e-03  -1.660931e-03  0 
 1.365210e-03  -1.970714e-03  0 
 1.616584e-03  -1.810408e-03  0 
 1.142415e-03  -1.498770e-03  0 
 1.117012e-03  -1.123397e-03  0 
 9.136588e-04  -1.282658e-03  0 
 1.295988e-03  -1.377001e-03  0 
 7.023136e-04  -6.622662e-04  0 
 9.492214e-04  -1.118612e-03  0 
 6.124628e-04  -6.045366e-04  0 
 9.531422e-04  -9.852549e-04  0 
 1.361225e-03  -1.632386e-03  0 
 9.162329e-04  -9.620743e-04  0 
 1.267535e-03  -1.744664e-03  0 
 1.280123e-03  -1.547555e-03  0 
 1.421690e-03  -1.885083e-03  0 
 1.486228e-03  -1.689583e-03  0 
 1.306572e-03  -1.881691e-03  0 
 1.618217e-03  -1.679220e-03  0 
 1.237291e-03  -1.651897e-03  0 
 1.422955e-03  -1.591006e-03  0 
 1.559889e-03  -1.663490e-03  0 
 1.379834e-03  -1.813833e-03  0 
 1.924594e-03  -1.767903e-03  0 
 1.631813e-03  -1.794559e-03  0 
VECTORS displacement_ITER11 FLOAT
 8.439378e-04  -1.155799e-03  0 
 1.430579e-03  -1.769720e-03  0 
 1.009362e-03  -1.493028e-03  0 
 1.176984e-03  -1.714394e-03  0 
 1.242529e-03  -1.324320e-03  0 
 1.479685e-03  -1.518538e-03  0 
 1.573852e-03  -1.660353e-03  0 
 1.363877e-03  -1.969869e-03  0 
 1.615236e-03  -1.812029e-03  0 
 1.141337e-03  -1.495962e-03  0 
 1.111996e-03  -1.106412e-03  0 
 9.107917e-04  -1.252079e-03  0 
 1.275791e-03  -1.380805e-03  0 
 7.398437e-04  -6.802711e-04  0 
 9.062341e-04  -1.104617e-03  0 
 5.864547e-04  -7.004381e-04  0 
 9.251927e-04  -9.866632e-04  0 
 1.359010e-03  -1.633364e-03  0 
 9.241779e-04  -9.583458e-04  0 
 1.266068e-03  -1.743251e-03  0 
 1.278700e-03  -1.545889e-03  0 
 1.420337e-03  -1.883888e-03  0 
 1.484958e-03  -1.688402e-03  0 
 1.305009e-03  -1.880487e-03  0 
 1.615189e-03  -1.679165e-03  0 
 1.235246e-03  -1.650007e-03  0 
 1.420183e-03  -1.589752e-03  0 
 1.557100e-03  -1.662458e-03  0 
 1.377207e-03  -1.812560e-03  0 
 1.930019e-03  -1.761130e-03  0 
 1.648697e-03  -1.797416e-03  0 
VECTORS displacement_ITER12 FLOAT
 8.435595e-04  -1.157249e-03  0 
 1.430050e-03  -1.770232e-03  0 
 1.008867e-03  -1.493276e-03  0 
 1.176473e-03  -1.714699e-03  0 
 1.242486e-03  -1.325071e-03  0 
 1.479651e-03  -1.518881e-03  0 
 1.573685e-03  -1.660795e-03  0 
 1.363567e-03  -1.970328e-03  0 
 1.614417e-03  -1.811791e-03  0 
 1.137688e-03  -1.495571e-03  0 
 1.113027e-03  -1.108229e-03  0 
 9.038551e-04  -1.251052e-03  0 
 1.277639e-03  -1.378179e-03  0 
 7.370000e-04  -6.759896e-04  0 
 9.091021e-04  -1.104499e-03  0 
 5.898494e-04  -6.707432e-04  0 
 9.295486e-04  -9.821864e-04  0 
 1.357542e-03  -1.633428e-03  0 
 9.293988e-04  -9.610764e-04  0 
 1.265702e-03  -1.743474e-03  0 
 1.278459e-03  -1.545884e-03  0 
 1.420213e-03  -1.884264e-03  0 
 1.484985e-03  -1.688424e-03  0 
 1.304628e-03  -1.880872e-03  0 
 1.614980e-03  -1.679331e-03  0 
 1.235122e-03  -1.650443e-03  0 
 1.419993e-03  -1.590192e-03  0 
 1.557093e-03  -1.662672e-03  0 
 1.376753e-03  -1.814022e-03  0 
 1.935101e-03  -1.771935e-03  0 
 1.645671e-03  -1.793227e-03  0 
VECTORS displacement_ITER13 FLOAT
 8.439855e-04  -1.157330e-03  0 
 1.430158e-03  -1.770051e-03  0 
 1.009017e-03  -1.493106e-03  0 
 1.176586e-03  -1.714521e-03  0 
 1.242693e-03  -1.325187e-03  0 
 1.479608e-03  -1.518915e-03  0 
 1.573645e-03  -1.660767e-03  0 
 1.363661e-03  -1.970148e-03  0 
 1.614541e-03  -1.811764e-03  0 
 1.137876e-03  -1.495647e-03  0 
 1.113126e-03  -1.107807e-03  0 
 9.044263e-04  -1.249397e-03  0 
 1.276682e-03  -1.378956e-03  0 
 7.369307e-04  -6.739415e-04  0 
 9.073175e-04  -1.105812e-03  0 
 5.869724e-04  -6.793551e-04  0 
 9.280048e-04  -9.833009e-04  0 
 1.357583e-03  -1.633558e-03  0 
 9.304128e-04  -9.602045e-04  0 
 1.265800e-03  -1.743281e-03  0 
 1.278546e-03  -1.545704e-03  0 
 1.420283e-03  -1.884116e-03  0 
 1.484954e-03  -1.688295e-03  0 
 1.304728e-03  -1.880695e-03  0 
 1.614891e-03  -1.679338e-03  0 
 1.235462e-03  -1.650189e-03  0 
 1.420038e-03  -1.590126e-03  0 
 1.557050e-03  -1.662708e-03  0 
 1.376903e-03  -1.813600e-03  0 
 1.932869e-03  -1.771791e-03  0 
 1.644949e-03  -1.793116e-03  0 
VECTORS displacement_ITER14 FLOAT
 8.439430e-04  -1.157322e-03  0 
 1.430152e-03  -1.770071e-03  0 
 1.009011e-03  -1.493115e-03  0 
 1.176579e-03  -1.714536e-03  0 
 1.242654e-03  -1.325176e-03  0 
 1.479588e-03  -1.518912e-03  0 
 1.573628e-03  -1.660762e-03  0 
 1.363658e-03  -1.970165e-03  0 
 1.614526e-03  -1.811777e-03  0 
 1.138005e-03  -1.495637e-03  0 
 1.113326e-03  -1.108148e-03  0 
 9.047273e-04  -1.249068e-03  0 
 1.276702e-03  -1.378912e-03  0 
 7.361713e-04  -6.725729e-04  0 
 9.071015e-04  -1.105996e-03  0 
 5.877664e-04  -6.806634e-04  0 
 9.284278e-04  -9.832214e-04  0 
 1.357629e-03  -1.633526e-03  0 
 9.305353e-04  -9.607494e-04  0 
 1.265797e-03  -1.743294e-03  0 
 1.278546e-03  -1.545713e-03  0 
 1.420284e-03  -1.884134e-03  0 
 1.484953e-03  -1.688305e-03  0 
 1.304725e-03  -1.880712e-03  0 
 1.614893e-03  -1.679358e-03  0 
 1.235407e-03  -1.650212e-03  0 
 1.420014e-03  -1.590130e-03  0 
 1.557024e-03  -1.662700e-03  0 
 1.376875e-03  -1.813617e-03  0 
 1.932794e-03  -1.771623e-03  0 
 1.644898e-03  -1.793163e-03  0 
CELL_DATA 42
TENSORS element_stresses FLOAT
 4.917212e-04  -7.436460e-04  0 
 -7.436460e-04  -5.951776e-04  0 
 0  0  0 

 1.082802e-03  -5.263092e-04  0 
 -5.263092e-04  -4.501040e-04  0 
 0  0  0 

 1.080534e-03  -6.331600e-04  0 
 -6.331600e-04  -7.604961e-04  0 
 0  0  0 

 1.018350e-03  -6.175489e-04  0 
 -6.175489e-04  -9.739285e-04  0 
 0  0  0 

 1.153089e-03  -4.869212e-04  0 
 -4.869212e-04  -2.214737e-04  0 
 0  0  0 

 1.118581e-03  -5.120679e-04  0 
 -5.120679e-04  -8.368406e-04  0 
 0  0  0 

 1.243354e-03  -6.009729e-04  0 
 -6.009729e-04  -9.845985e-04  0 
 0  0  0 

 1.184787e-03  -4.434605e-04  0 
 -4.434605e-04  -7.665657e-04  0 
 0  0  0 

 1.184114e-03  -4.275569e-04  0 
 -4.275569e-04  -7.648457e-04  0 
 0  0  0 

 1.260774e-03  -3.725286e-04  0 
 -3.725286e-04  -9.032586e-04  0 
 0  0  0 

 9.144800e-04  -5.652016e-04  0 
 -5.652016e-04  -3.326988e-04  0 
 0  0  0 

 1.042747e-03  -7.525482e-04  0 
 -7.525482e-04  -1.244112e-04  0 
 0  0  0 

 1.164838e-03  -7.610947e-04  0 
 -7.610947e-04  -4.930396e-04  0 
 0  0  0 

 1.117366e-03  -4.670085e-04  0 
 -4.670085e-04  -6.054927e-04  0 
 0  0  0 

 9.054927e-04  -2.094400e-04  0 
 -2.094400e-04  -3.997689e-04  0 
 0  0  0 

 1.236591e-03  -4.757628e-04  0 
 -4.757628e-04  -6.316466e-04  0 
 0  0  0 

 1.018828e-03  -3.785218e-04  0 
 -3.785218e-04  -7.143140e-04  0 
 0  0  0 

 8.955150e-04  -2.929931e-04  0 
 -2.929931e-04  -6.551798e-04  0 
 0  0  0 

 1.179189e-03  -5.144632e-04  0 
 -5.144632e-04  -1.006381e-03  0 
 0  0  0 

 1.237368e-03  -4.944652e-04  0 
 -4.944652e-04  -8.061051e-04  0 
 0  0  0 

 5.592641e-01  -7.728611e-02  0 
 -7.728611e-02  -3.700345e-01  0 
 0  0  0 

 1.950425e-01  6.875098e-04  0 
 6.875098e-04  -1.752539e-01  0 
 0  0  0 

 2.288210e-01  -8.196728e-02  0 
 -8.196728e-02  9.559232e-02  0 
 0  0  0 

 -1.438573e-02  1.123483e-03  0 
 1.123483e-03  5.237339e-02  0 
 0  0  0 

 8.065548e-01  -3.978228e-02  0 
 -3.978228e-02  -6.924494e-01  0 
 0  0  0 

 3.569851e-01  -2.693155e-01  0 
 -2.693155e-01  -6.932810e-01  0 
 0  0  0 

 1.660797e-01  -1.697167e-01  0 
 -1.697167e-01  -4.736183e-01  0 
 0  0  0 

 -2.923451e-02  5.486375e-02  0 
 5.486375e-02  -9.178172e-02  0 
 0  0  0 

 3.048510e-01  -1.089288e-01  0 
 -1.089288e-01  -2.128004e-02  0 
 0  0  0 

 1.064165e-01  -2.217184e-02  0 
 -2.217184e-02  -7.430198e-01  0 
 0  0  0 

 5.112314e-02  -4.759940e-02  0 
 -4.759940e-02  -5.520633e-01  0 
 0  0  0 

 2.243282e-02  7.002373e-02  0 
 7.002373e-02  -1.044089e-01  0 
 0  0  0 

 9.980039e-02  1.368367e-01  0 
 1.368367e-01  -3.676387e-02  0 
 0  0  0 

 1.331358e-01  -1.792596e-01  0 
 -1.792596e-01  -2.562844e-01  0 
 0  0  0 

 1.697103e-01  -4.250197e-01  0 
 -4.250197e-01  -3.863223e-01  0 
 0  0  0 

 5.851568e-01  -1.152288e-01  0 
 -1.152288e-01  -5.078041e-01  0 
 0  0  0 

 1.254284e-01  1.349059e-01  0 
 1.349059e-01  -6.337882e-01  0 
 0  0  0 

 9.106140e-02  1.017910e-01  0 
 1.017910e-01  -1.465463e-01  0 
 0  0  0 

 -2.271527e-02  -1.444330e-01  0 
 -1.444330e-01  -3.316248e-02  0 
 0  0  0 

 1.426568e-03  3.171558e-04  0 
 3.171558e-04  -3.724061e-04  0 
 0  0  0 

 8.203229e-04  2.723226e-04  0 
 2.723226e-04  2.760830e-04  0 
 0  0  0 

 1.497767e-03  6.759337e-04  0 
 6.759337e-04  5.976366e-04  0 
 0  0  0 

TENSORS element_stresses FLOAT
 4.917212e-04  -7.436460e-04  0 
 -7.436460e-04  -5.951776e-04  0 
 0  0  0 

 1.082802e-03  -5.263092e-04  0 
 -5.263092e-04  -4.501040e-04  0 
 0  0  0 

 1.080534e-03  -6.331600e-04  0 
 -6.331600e-04  -7.604961e-04  0 
 0  0  0 

 1.018350e-03  -6.175489e-04  0 
 -6.175489e-04  -9.739285e-04  0 
 0  0  0 

 1.153089e-03  -4.869212e-04  0 
 -4.869212e-04  -2.214737e-04  0 
 0  0  0 

 1.118581e-03  -5.120679e-04  0 
 -5.120679e-04  -8.368406e-04  0 
 0  0  0 

 1.243354e-03  -6.009729e-04  0 
 -6.009729e-04  -9.845985e-04  0 
 0  0  0 

 1.184787e-03  -4.434605e-04  0 
 -4.434605e-04  -7.665657e-04  0 
 0  0  0 

 1.184114e-03  -4.275569e-04  0 
 -4.275569e-04  -7.648457e-04  0 
 0  0  0 

 1.260774e-03  -3.725286e-04  0 
 -3.725286e-04  -9.032586e-04  0 
 0  0  0 

 9.144800e-04  -5.652016e-04  0 
 -5.652016e-04  -3.326988e-04  0 
 0  0  0 

 1.042747e-03  -7.525482e-04  0 
 -7.525482e-04  -1.244112e-04  0 
 0  0  0 

 1.164838e-03  -7.610947e-04  0 
 -7.610947e-04  -4.930396e-04  0 
 0  0  0 

 1.117366e-03  -4.670085e-04  0 
 -4.670085e-04  -6.054927e-04  0 
 0  0  0 

 9.054927e-04  -2.094400e-04  0 
 -2.094400e-04  -3.997689e-04  0 
 0  0  0 

 1.236591e-03  -4.757628e-04  0 
 -4.757628e-04  -6.316466e-04  0 
 0  0  0 

 1.018828e-03  -3.785218e-04  0 
 -3.785218e-04  -7.143140e-04  0 
 0  0  0 

 8.955150e-04  -2.929931e-04  0 
 -2.929931e-04  -6.551798e-04  0 
 0  0  0 

 1.179189e-03  -5.144632e-04  0 
 -5.144632e-04  -1.006381e-03  0 
 0  0  0 

 1.237368e-03  -4.944652e-04  0 
 -4.944652e-04  -8.061051e-04  0 
 0  0  0 

 5.592641e-01  -7.728611e-02  0 
 -7.728611e-02  -3.700345e-01  0 
 0  0  0 

 1.950425e-01  6.875098e-04  0 
 6.875098e-04  -1.752539e-01  0 
 0  0  0 

 2.288210e-01  -8.196728e-02  0 
 -8.196728e-02  9.559232e-02  0 
 0  0  0 

 -1.438573e-02  1.123483e-03  0 
 1.123483e-03  5.237339e-02  0 
 0  0  0 

 8.065548e-01  -3.978228e-02  0 
 -3.978228e-02  -6.924494e-01  0 
 0  0  0 

 3.569851e-01  -2.693155e-01  0 
 -2.693155e-01  -6.932810e-01  0 
 0  0  0 

 1.660797e-01  -1.697167e-01  0 
 -1.697167e-01  -4.736183e-01  0 
 0  0  0 

 -2.923451e-02  5.486375e-02  0 
 5.486375e-02  -9.178172e-02  0 
 0  0  0 

 3.048510e-01  -1.089288e-01  0 
 -1.089288e-01  -2.128004e-02  0 
 0  0  0 

 1.064165e-01  -2.217184e-02  0 
 -2.217184e-02  -7.430198e-01  0 
 0  0  0 

 5.112314e-02  -4.759940e-02  0 
 -4.759940e-02  -5.520633e-01  0 
 0  0  0 

 2.243282e-02  7.002373e-02  0 
 7.002373e-02  -1.044089e-01  0 
 0  0  0 

 9.980039e-02  1.368367e-01  0 
 1.368367e-01  -3.676387e-02  0 
 0  0  0 

 1.331358e-01  -1.792596e-01  0 
 -1.792596e-01  -2.562844e-01  0 
 0  0  0 

 1.697103e-01  -4.250197e-01  0 
 -4.250197e-01  -3.863223e-01  0 
 0  0  0 

 5.851568e-01  -1.152288e-01  0 
 -1.152288e-01  -5.078041e-01  0 
 0  0  0 

 1.254284e-01  1.349059e-01  0 
 1.349059e-01  -6.337882e-01  0 
 0  0  0 

 9.106140e-02  1.017910e-01  0 
 1.017910e-01  -1.465463e-01  0 
 0  0  0 

 -2.271527e-02  -1.444330e-01  0 
 -1.444330e-01  -3.316248e-02  0 
 0  0  0 

 1.426568e-03  3.171558e-04  0 
 3.171558e-04  -3.724061e-04  0 
 0  0  0 

 8.203229e-04  2.723226e-04  0 
 2.723226e-04  2.760830e-04  0 
 0  0  0 

 1.497767e-03  6.759337e-04  0 
 6.759337e-04  5.976366e-04  0 
 0  0  0 

