# vtk DataFile Version 3.1
this is an vtk file created by FEMAC
ASCII
DATASET UNSTRUCTURED_GRID
POINTS 31 FLOAT
2.000000 3.000000 0.000000
1.500000 2.000000 0.000000
1.500000 3.000000 0.000000
1.750000 3.000000 0.000000
2.000000 2.250000 0.000000
2.000000 2.500000 0.000000
2.000000 2.750000 0.000000
2.000000 3.250000 0.000000
2.250000 3.000000 0.000000
2.500000 3.000000 0.000000
2.750000 3.000000 0.000000
1.556014 2.528684 0.000000
1.745000 2.805000 0.000000
1.745000 2.195000 0.000000
1.831148 2.378957 0.000000
1.758843 2.566179 0.000000
1.339859 2.197089 0.000000
1.387500 2.413333 0.000000
1.588338 2.325606 0.000000
1.548715 2.715781 0.000000
1.805000 3.255000 0.000000
1.630982 3.182178 0.000000
2.195000 2.745000 0.000000
2.378957 2.831148 0.000000
2.566179 2.758843 0.000000
2.325606 2.588338 0.000000
2.769602 3.187596 0.000000
2.368420 3.207407 0.000000
2.275508 3.443567 0.000000
2.567037 3.328363 0.000000
2.181111 3.179494 0.000000
CELLS 42 168 
3 2 12  3
3 14  4  5
3 6 15  5
3 19 15 12
3 14 18 13
3 12 15  6
3 14 13  4
3 18  1 13
3 16  1 18
3 11 17 18
3 16 18 17
3 2 19 12
3 12  0  3
3 6  0 12
3 14  5 15
3 11 18 15
3 19 11 15
3 14 15 18
3 3 21  2
3 20 21  3
3 0 20  3
3 0  7 20
3 5 22  6
3 8 23  9
3 24 10  9
3 25 23 22
3 22 23  8
3 5 25 22
3 22  0  6
3 8  0 22
3 9 23 24
3 24 23 25
3 26  9 10
3 27  8  9
3 29  9 26
3 27  9 29
3 30  7  0
3 8 30  0
3 27 30  8
3 27 29 28
3 27 28 30
3 7 30 28
CELL_TYPES 42
5 5 5 5 5 5 5 5 5 5 5 5 5 5 5 5 5 5 5 5 5 5 5 5 5 5 5 5 5 5 5 5 5 5 5 5 5 5 5 5 5 5 
POINT_DATA 31
VECTORS displacement_ITER1 FLOAT
 -8.902874e-03  -4.399732e-02  0 
 3.842616e-03  -1.482822e-02  0 
 -8.979745e-03  2.740991e-03  0 
 -8.943942e-03  -2.063968e-02  0 
 -2.776084e-02  -2.699647e-02  0 
 -5.615473e-02  -4.403367e-02  0 
 -3.253480e-02  -4.402782e-02  0 
 1.435688e-02  -4.395946e-02  0 
 -8.855267e-03  -6.771893e-02  0 
 -8.805341e-03  -9.146749e-02  0 
 -8.775751e-03  -1.152805e-01  0 
 -3.477363e-02  -1.251086e-02  0 
 -2.567100e-02  -1.850514e-02  0 
 -1.939507e-02  -2.479929e-02  0 
 -4.192182e-02  -3.127393e-02  0 
 -4.346008e-02  -1.917716e-02  0 
 -1.822077e-02  -2.934940e-02  0 
 -2.515767e-02  -1.825627e-02  0 
 -3.026435e-02  -2.382130e-02  0 
 -3.259196e-02  6.193393e-04  0 
 1.483940e-02  -2.579668e-02  0 
 8.046404e-03  -9.538355e-03  0 
 -3.301701e-02  -6.247396e-02  0 
 -2.485053e-02  -7.993670e-02  0 
 -3.171300e-02  -9.772566e-02  0 
 -4.785887e-02  -7.487168e-02  0 
 -8.344871e-04  -1.266280e-01  0 
 6.055087e-03  -7.950841e-02  0 
 2.071970e-02  -7.055576e-02  0 
 1.270503e-02  -9.772362e-02  0 
 5.768683e-03  -6.283184e-02  0 
VECTORS displacement_ITER2 FLOAT
 4.289567e-03  -4.788455e-02  0 
 -3.264601e-02  6.328276e-03  0 
 4.202397e-03  -4.162669e-02  0 
 4.241338e-03  -4.475316e-02  0 
 -1.087464e-02  -7.745752e-02  0 
 -3.926290e-03  -4.805882e-02  0 
 1.686636e-04  -4.797562e-02  0 
 7.285069e-03  -4.781059e-02  0 
 4.328164e-03  -5.212651e-02  0 
 4.385134e-03  -5.638562e-02  0 
 4.425528e-03  -6.072633e-02  0 
 8.805337e-03  -2.729738e-02  0 
 4.658433e-03  -4.031339e-02  0 
 -2.783695e-03  -4.603773e-02  0 
 2.914899e-03  -4.823062e-02  0 
 5.030718e-03  -3.901908e-02  0 
 -1.368499e-02  1.187854e-02  0 
 1.089066e-02  -7.527088e-03  0 
 6.024360e-03  -2.953306e-02  0 
 4.750207e-03  -3.278779e-02  0 
 7.376191e-03  -4.546442e-02  0 
 6.466719e-03  -4.330313e-02  0 
 5.096078e-05  -5.119313e-02  0 
 1.495102e-03  -5.428958e-02  0 
 2.705548e-04  -5.747403e-02  0 
 -2.552898e-03  -5.338755e-02  0 
 3.148394e-03  -6.747075e-02  0 
 5.605485e-03  -5.363245e-02  0 
 6.297742e-03  -5.091282e-02  0 
 5.862242e-03  -5.678844e-02  0 
 6.019250e-03  -5.096064e-02  0 
VECTORS displacement_ITER3 FLOAT
 -1.878567e-03  -8.909233e-03  0 
 1.280132e-02  -1.570272e-02  0 
 -1.962430e-03  -8.063102e-03  0 
 -1.924438e-03  -8.463732e-03  0 
 -2.363233e-02  -1.496595e-02  0 
 -1.058615e-02  -9.097564e-03  0 
 -6.238387e-03  -9.018785e-03  0 
 -1.581111e-03  -8.828090e-03  0 
 -1.832335e-03  -1.342068e-02  0 
 -1.777605e-03  -1.792588e-02  0 
 -1.741974e-03  -2.248988e-02  0 
 -4.772930e-03  1.339664e-03  0 
 -2.558470e-03  -4.462620e-03  0 
 -8.078364e-03  -6.037725e-04  0 
 -1.140397e-02  -1.997170e-03  0 
 -7.138062e-03  -2.455401e-03  0 
 4.689696e-03  -1.227822e-02  0 
 -3.046924e-03  1.206356e-03  0 
 -8.615000e-03  -1.146010e-03  0 
 -3.021338e-03  -9.470494e-05  0 
 -1.555384e-03  -8.566821e-03  0 
 -1.687406e-03  -8.318164e-03  0 
 -6.360818e-03  -1.243125e-02  0 
 -4.827637e-03  -1.571431e-02  0 
 -6.116237e-03  -1.908293e-02  0 
 -9.114788e-03  -1.475629e-02  0 
 -3.118582e-03  -2.729590e-02  0 
 -9.732217e-04  -1.480972e-02  0 
 7.759985e-04  -1.188238e-02  0 
 -4.007114e-04  -1.784983e-02  0 
 -1.215810e-03  -1.140979e-02  0 
VECTORS displacement_ITER4 FLOAT
 1.115923e-04  2.265351e-03  0 
 2.264185e-03  -8.302128e-03  0 
 8.121617e-06  -3.155077e-03  0 
 5.296660e-05  -4.034709e-04  0 
 -6.433820e-03  8.078557e-03  0 
 -2.250281e-03  2.051810e-03  0 
 -1.083781e-03  2.144343e-03  0 
 -2.750542e-03  2.414550e-03  0 
 1.641154e-04  9.084381e-04  0 
 2.275681e-04  -4.429655e-04  0 
 2.706650e-04  -1.848223e-03  0 
 -3.241342e-03  4.126500e-03  0 
 -2.843740e-04  1.379288e-03  0 
 -4.507301e-03  3.664640e-03  0 
 -5.211769e-03  4.913626e-03  0 
 -3.047128e-03  3.531953e-03  0 
 1.440113e-03  -4.098518e-03  0 
 -3.114521e-03  2.073890e-03  0 
 -4.540770e-03  2.863071e-03  0 
 -2.509219e-03  3.718040e-03  0 
 -2.746849e-03  1.717321e-04  0 
 -1.975217e-03  -1.735472e-03  0 
 -1.146447e-03  1.210117e-03  0 
 -6.956852e-04  2.487509e-04  0 
 -1.066085e-03  -7.574418e-04  0 
 -1.911939e-03  5.474522e-04  0 
 -1.703263e-03  -9.574862e-03  0 
 -3.774227e-04  -1.180500e-03  0 
 1.594801e-03  -1.626468e-03  0 
 8.503488e-04  -4.528907e-03  0 
 -1.277725e-03  1.346867e-03  0 
VECTORS displacement_ITER5 FLOAT
 9.994979e-04  -8.246801e-06  0 
 -1.943002e-03  -3.827150e-03  0 
 9.107091e-04  1.293919e-03  0 
 9.451585e-04  6.616115e-04  0 
 -2.881129e-03  1.731495e-03  0 
 1.320463e-03  -2.272015e-04  0 
 1.140822e-03  -1.313642e-04  0 
 1.456278e-03  1.810595e-04  0 
 1.037544e-03  -1.644625e-05  0 
 1.071611e-03  3.730273e-06  0 
 1.086055e-03  4.288360e-06  0 
 -3.602398e-04  1.630093e-03  0 
 5.752266e-04  5.705297e-04  0 
 -1.228203e-03  4.365461e-04  0 
 -1.064927e-03  1.819974e-03  0 
 -1.155484e-04  1.332214e-03  0 
 4.762238e-04  -6.796731e-04  0 
 -3.129783e-04  5.909163e-04  0 
 -6.868537e-04  6.635319e-04  0 
 -6.042342e-04  2.078386e-03  0 
 1.556508e-03  5.039430e-04  0 
 1.378362e-03  9.556588e-04  0 
 1.104307e-03  -2.156865e-05  0 
 1.086685e-03  1.321466e-05  0 
 1.107530e-03  2.651844e-05  0 
 1.185570e-03  2.038455e-05  0 
 -7.726060e-04  -3.954011e-03  0 
 6.338150e-04  -2.707215e-04  0 
 9.752313e-04  6.883944e-04  0 
 4.175390e-04  -1.071223e-03  0 
 1.016400e-03  -5.415532e-05  0 
VECTORS displacement_ITER6 FLOAT
 -1.373059e-04  -1.356959e-03  0 
 -9.783562e-04  -3.766944e-04  0 
 -2.399096e-04  -1.138983e-03  0 
 -1.996237e-04  -1.214062e-03  0 
 -1.050320e-03  -3.454897e-04  0 
 -3.884919e-04  -1.609764e-03  0 
 -2.826971e-04  -1.495434e-03  0 
 -2.301317e-04  -1.153719e-03  0 
 -8.700529e-05  -1.681260e-03  0 
 -5.543226e-05  -1.957434e-03  0 
 -5.567103e-05  -2.232467e-03  0 
 -4.493468e-04  -1.576858e-05  0 
 -2.597697e-04  -9.880286e-04  0 
 -1.011601e-03  5.158989e-04  0 
 -7.974490e-04  -2.739311e-04  0 
 -4.398966e-04  -4.883630e-04  0 
 5.064164e-05  -8.278717e-04  0 
 -2.598648e-04  -4.244181e-04  0 
 -6.788761e-04  6.240490e-05  0 
 -6.626207e-04  -3.466730e-04  0 
 -1.356642e-04  -1.256057e-03  0 
 -1.619585e-04  -1.179311e-03  0 
 -3.311717e-04  -1.608077e-03  0 
 -2.349762e-04  -1.806698e-03  0 
 -2.931237e-04  -2.025707e-03  0 
 -4.366100e-04  -1.718381e-03  0 
 8.698879e-04  -2.155492e-03  0 
 2.400838e-04  -1.591743e-03  0 
 1.149918e-03  -9.300696e-04  0 
 7.554764e-04  -2.061597e-03  0 
 4.043593e-05  -1.194979e-03  0 
VECTORS displacement_ITER7 FLOAT
 1.923371e-04  -9.066649e-04  0 
 -1.093449e-04  8.193427e-05  0 
 1.344838e-04  -6.731439e-04  0 
 1.535142e-04  -7.543976e-04  0 
 -4.525236e-04  -7.576231e-04  0 
 -2.613444e-04  -1.020935e-03  0 
 -2.899877e-05  -9.872978e-04  0 
 2.011081e-04  -8.144220e-04  0 
 2.344050e-04  -1.267266e-03  0 
 2.482473e-04  -1.578472e-03  0 
 2.342704e-04  -1.875367e-03  0 
 -5.249964e-04  -1.827032e-04  0 
 -5.879781e-05  -7.257994e-04  0 
 -8.306483e-04  2.667062e-04  0 
 -4.168388e-04  -4.247581e-04  0 
 -3.167624e-04  -4.946207e-04  0 
 -5.501658e-05  -9.574727e-04  0 
 -5.496313e-04  -6.453333e-04  0 
 -6.062187e-04  6.854171e-05  0 
 -4.267819e-04  -3.174458e-04  0 
 2.283280e-04  -7.812833e-04  0 
 1.974529e-04  -7.157406e-04  0 
 -5.192925e-05  -1.186678e-03  0 
 5.398422e-05  -1.422506e-03  0 
 -2.103104e-05  -1.667941e-03  0 
 -2.062162e-04  -1.343315e-03  0 
 3.957504e-04  -2.230691e-03  0 
 3.076958e-04  -1.473098e-03  0 
 3.689370e-04  -1.519104e-03  0 
 4.476673e-04  -1.823649e-03  0 
 2.218822e-04  -1.177618e-03  0 
VECTORS displacement_ITER8 FLOAT
 1.609595e-05  -9.980928e-04  0 
 -5.317599e-04  -7.430787e-04  0 
 -5.432017e-05  -5.587841e-04  0 
 -3.615035e-05  -7.424937e-04  0 
 -5.615978e-04  -1.100701e-03  0 
 -3.456307e-04  -1.066405e-03  0 
 -1.455820e-04  -1.061114e-03  0 
 1.145959e-04  -9.225117e-04  0 
 6.748650e-05  -1.300309e-03  0 
 9.781123e-05  -1.564482e-03  0 
 9.759992e-05  -1.833929e-03  0 
 -2.423261e-04  -5.409109e-04  0 
 -1.035096e-04  -7.197126e-04  0 
 -4.473905e-04  -7.539368e-04  0 
 -3.933632e-04  -8.284297e-04  0 
 -2.796056e-04  -7.234516e-04  0 
 -2.748589e-04  -5.815331e-04  0 
 -2.154336e-04  -5.135268e-04  0 
 -3.368230e-04  -6.485302e-04  0 
 -1.867378e-04  -4.849829e-04  0 
 1.376635e-04  -8.057156e-04  0 
 7.512995e-05  -6.546174e-04  0 
 -1.575935e-04  -1.228637e-03  0 
 -7.318946e-05  -1.423067e-03  0 
 -1.375649e-04  -1.633463e-03  0 
 -2.806684e-04  -1.364874e-03  0 
 2.143382e-04  -1.977846e-03  0 
 1.978341e-04  -1.349306e-03  0 
 3.739510e-04  -1.140783e-03  0 
 3.311442e-04  -1.564729e-03  0 
 1.401959e-04  -1.133238e-03  0 
VECTORS displacement_ITER9 FLOAT
 8.118174e-05  -8.721200e-04  0 
 -4.129578e-04  -4.696078e-04  0 
 1.373974e-05  -5.384204e-04  0 
 3.531905e-05  -6.818358e-04  0 
 -5.184020e-04  -9.208047e-04  0 
 -3.264775e-04  -9.450890e-04  0 
 -1.059757e-04  -9.358424e-04  0 
 1.423960e-04  -8.212257e-04  0 
 1.328712e-04  -1.196956e-03  0 
 1.698783e-04  -1.492687e-03  0 
 1.754635e-04  -1.807345e-03  0 
 -1.393504e-04  -4.789050e-04  0 
 -1.790296e-06  -6.213104e-04  0 
 -4.557017e-04  -8.449311e-04  0 
 -3.815921e-04  -8.068904e-04  0 
 -1.917079e-04  -6.738325e-04  0 
 -3.203802e-04  -3.377127e-04  0 
 -1.616930e-04  -3.013377e-04  0 
 -3.075606e-04  -5.751592e-04  0 
 -7.568021e-06  -4.538638e-04  0 
 1.457653e-04  -7.236350e-04  0 
 1.102920e-04  -6.182539e-04  0 
 -1.196766e-04  -1.119896e-03  0 
 -2.698891e-05  -1.331708e-03  0 
 -1.019602e-04  -1.565427e-03  0 
 -2.579047e-04  -1.267946e-03  0 
 4.535037e-04  -1.769331e-03  0 
 2.895781e-04  -1.280946e-03  0 
 3.668883e-04  -1.213212e-03  0 
 4.565205e-04  -1.509608e-03  0 
 1.945478e-04  -1.059679e-03  0 
VECTORS displacement_ITER10 FLOAT
 7.024150e-05  -8.682401e-04  0 
 -3.619462e-04  -5.066676e-04  0 
 -7.271210e-06  -4.939918e-04  0 
 2.098468e-05  -6.651063e-04  0 
 -4.962404e-04  -9.380886e-04  0 
 -2.949947e-04  -9.455499e-04  0 
 -9.566780e-05  -9.292118e-04  0 
 1.457715e-04  -8.187971e-04  0 
 1.251975e-04  -1.170976e-03  0 
 1.648840e-04  -1.445577e-03  0 
 1.729108e-04  -1.746614e-03  0 
 -1.607582e-04  -4.544234e-04  0 
 -2.051344e-05  -6.137325e-04  0 
 -4.276713e-04  -5.950911e-04  0 
 -3.434535e-04  -7.196367e-04  0 
 -1.856115e-04  -6.448672e-04  0 
 -2.526933e-04  -4.104217e-04  0 
 -1.889936e-04  -3.261273e-04  0 
 -3.216047e-04  -4.909953e-04  0 
 -3.609582e-05  -4.499284e-04  0 
 1.504339e-04  -7.156748e-04  0 
 1.082036e-04  -5.968160e-04  0 
 -1.095974e-04  -1.092290e-03  0 
 -1.803076e-05  -1.290745e-03  0 
 -7.923754e-05  -1.503766e-03  0 
 -2.315174e-04  -1.217869e-03  0 
 3.908350e-04  -1.735951e-03  0 
 2.259703e-04  -1.340525e-03  0 
 2.626274e-04  -1.366930e-03  0 
 3.398909e-04  -1.593997e-03  0 
 1.508049e-04  -1.110003e-03  0 
VECTORS displacement_ITER11 FLOAT
 7.070249e-05  -8.653914e-04  0 
 -3.338474e-04  -4.627154e-04  0 
 -5.548900e-06  -5.015825e-04  0 
 2.175183e-05  -6.657148e-04  0 
 -4.962930e-04  -9.217049e-04  0 
 -3.117977e-04  -9.352777e-04  0 
 -1.003448e-04  -9.232556e-04  0 
 1.435812e-04  -8.169317e-04  0 
 1.238365e-04  -1.170379e-03  0 
 1.619676e-04  -1.445123e-03  0 
 1.707874e-04  -1.742563e-03  0 
 -1.670231e-04  -4.546105e-04  0 
 -4.002555e-05  -6.221989e-04  0 
 -4.082317e-04  -6.350311e-04  0 
 -3.453506e-04  -7.184675e-04  0 
 -1.953809e-04  -6.252960e-04  0 
 -2.227350e-04  -3.199918e-04  0 
 -1.640511e-04  -3.016706e-04  0 
 -2.872320e-04  -4.816877e-04  0 
 -7.763027e-05  -4.653461e-04  0 
 1.477872e-04  -7.151926e-04  0 
 1.065101e-04  -5.986519e-04  0 
 -1.126024e-04  -1.093416e-03  0 
 -2.109365e-05  -1.291589e-03  0 
 -8.270080e-05  -1.503381e-03  0 
 -2.366059e-04  -1.220941e-03  0 
 3.116215e-04  -1.784462e-03  0 
 2.440538e-04  -1.295092e-03  0 
 3.743368e-04  -1.205474e-03  0 
 3.801606e-04  -1.550748e-03  0 
 1.709671e-04  -1.058404e-03  0 
VECTORS displacement_ITER12 FLOAT
 6.989196e-05  -8.650569e-04  0 
 -3.337374e-04  -4.631497e-04  0 
 -6.930278e-06  -5.011624e-04  0 
 2.097117e-05  -6.657067e-04  0 
 -4.957552e-04  -9.217226e-04  0 
 -3.123386e-04  -9.341494e-04  0 
 -1.009636e-04  -9.225902e-04  0 
 1.424998e-04  -8.164781e-04  0 
 1.231594e-04  -1.169962e-03  0 
 1.606496e-04  -1.443839e-03  0 
 1.687147e-04  -1.738323e-03  0 
 -1.699858e-04  -4.517241e-04  0 
 -3.490395e-05  -6.161749e-04  0 
 -4.077237e-04  -6.268076e-04  0 
 -3.464299e-04  -7.158182e-04  0 
 -1.994529e-04  -6.255188e-04  0 
 -2.294547e-04  -3.486605e-04  0 
 -1.736862e-04  -3.312606e-04  0 
 -2.925429e-04  -4.861237e-04  0 
 -7.081454e-05  -4.472333e-04  0 
 1.468047e-04  -7.149420e-04  0 
 1.057290e-04  -5.989132e-04  0 
 -1.130776e-04  -1.092689e-03  0 
 -2.142268e-05  -1.291156e-03  0 
 -8.278131e-05  -1.502861e-03  0 
 -2.372571e-04  -1.220314e-03  0 
 3.066645e-04  -1.797368e-03  0 
 2.388953e-04  -1.289340e-03  0 
 3.579015e-04  -1.191127e-03  0 
 3.747595e-04  -1.550744e-03  0 
 1.690955e-04  -1.056177e-03  0 
VECTORS displacement_ITER13 FLOAT
 6.960940e-05  -8.654174e-04  0 
 -3.337227e-04  -4.634284e-04  0 
 -7.275200e-06  -5.011864e-04  0 
 2.071257e-05  -6.658849e-04  0 
 -4.959951e-04  -9.221215e-04  0 
 -3.121544e-04  -9.348911e-04  0 
 -1.010895e-04  -9.231086e-04  0 
 1.424214e-04  -8.167668e-04  0 
 1.228938e-04  -1.170235e-03  0 
 1.605272e-04  -1.444139e-03  0 
 1.687150e-04  -1.738779e-03  0 
 -1.700003e-04  -4.519870e-04  0 
 -3.428357e-05  -6.159520e-04  0 
 -4.081941e-04  -6.272524e-04  0 
 -3.468029e-04  -7.164907e-04  0 
 -1.994053e-04  -6.265035e-04  0 
 -2.312283e-04  -3.498164e-04  0 
 -1.744614e-04  -3.309909e-04  0 
 -2.937035e-04  -4.868281e-04  0 
 -6.925765e-05  -4.466248e-04  0 
 1.467435e-04  -7.150859e-04  0 
 1.056562e-04  -5.990016e-04  0 
 -1.132756e-04  -1.093002e-03  0 
 -2.166144e-05  -1.291361e-03  0 
 -8.306399e-05  -1.503118e-03  0 
 -2.373265e-04  -1.220515e-03  0 
 3.036283e-04  -1.794524e-03  0 
 2.416351e-04  -1.291364e-03  0 
 3.640602e-04  -1.198427e-03  0 
 3.797307e-04  -1.551783e-03  0 
 1.697243e-04  -1.057261e-03  0 
VECTORS displacement_ITER14 FLOAT
 6.962256e-05  -8.653898e-04  0 
 -3.337374e-04  -4.633736e-04  0 
 -7.262020e-06  -5.011286e-04  0 
 2.072027e-05  -6.658572e-04  0 
 -4.960105e-04  -9.220915e-04  0 
 -3.121774e-04  -9.348421e-04  0 
 -1.010944e-04  -9.230725e-04  0 
 1.424278e-04  -8.167443e-04  0 
 1.229116e-04  -1.170228e-03  0 
 1.605319e-04  -1.444140e-03  0 
 1.687102e-04  -1.738757e-03  0 
 -1.697559e-04  -4.521720e-04  0 
 -3.438871e-05  -6.160087e-04  0 
 -4.081530e-04  -6.278267e-04  0 
 -3.467693e-04  -7.166387e-04  0 
 -1.993374e-04  -6.264570e-04  0 
 -2.314372e-04  -3.486098e-04  0 
 -1.741811e-04  -3.313582e-04  0 
 -2.933819e-04  -4.870509e-04  0 
 -6.943985e-05  -4.467877e-04  0 
 1.467493e-04  -7.150682e-04  0 
 1.056652e-04  -5.989667e-04  0 
 -1.132774e-04  -1.092982e-03  0 
 -2.165242e-05  -1.291366e-03  0 
 -8.305334e-05  -1.503128e-03  0 
 -2.373573e-04  -1.220523e-03  0 
 3.032661e-04  -1.794651e-03  0 
 2.421824e-04  -1.291058e-03  0 
 3.640333e-04  -1.198875e-03  0 
 3.808415e-04  -1.551336e-03  0 
 1.699433e-04  -1.057214e-03  0 
CELL_DATA 42
TENSORS element_stresses FLOAT
 4.429424e-05  -2.916725e-04  0 
 -2.916725e-04  -2.254497e-04  0 
 0  0  0 

 -3.709488e-04  -4.002920e-04  0 
 -4.002920e-04  -1.622870e-04  0 
 0  0  0 

 -2.440459e-04  -3.242469e-04  0 
 -3.242469e-04  -2.613537e-05  0 
 0  0  0 

 -1.469358e-04  -1.356383e-04  0 
 -1.356383e-04  -5.014278e-05  0 
 0  0  0 

 -3.738369e-04  -3.453975e-04  0 
 -3.453975e-04  -1.567221e-04  0 
 0  0  0 

 -1.340220e-04  -4.044549e-04  0 
 -4.044549e-04  -6.658458e-05  0 
 0  0  0 

 -4.879974e-04  -4.747327e-04  0 
 -4.747327e-04  -8.229916e-05  0 
 0  0  0 

 -5.179617e-04  -3.993148e-04  0 
 -3.993148e-04  -1.587132e-05  0 
 0  0  0 

 -3.705291e-04  -2.934640e-04  0 
 -2.934640e-04  -1.991543e-05  0 
 0  0  0 

 -3.697731e-04  -1.536866e-04  0 
 -1.536866e-04  -5.895655e-05  0 
 0  0  0 

 -4.036725e-04  -2.419722e-04  0 
 -2.419722e-04  1.074694e-04  0 
 0  0  0 

 -2.299303e-05  -3.752572e-04  0 
 -3.752572e-04  -3.213607e-04  0 
 0  0  0 

 1.374271e-04  -4.004124e-04  0 
 -4.004124e-04  -1.939402e-04  0 
 0  0  0 

 -4.954576e-05  -3.627219e-04  0 
 -3.627219e-04  2.158669e-04  0 
 0  0  0 

 -3.140072e-04  -4.644743e-04  0 
 -4.644743e-04  -1.078219e-04  0 
 0  0  0 

 -2.646172e-04  -2.282641e-04  0 
 -2.282641e-04  -4.540223e-05  0 
 0  0  0 

 -2.688147e-04  -2.551680e-04  0 
 -2.551680e-04  -8.535333e-05  0 
 0  0  0 

 -3.625780e-04  -2.473397e-04  0 
 -2.473397e-04  -1.371995e-06  0 
 0  0  0 

 1.021303e-01  -9.193645e-02  0 
 -9.193645e-02  -3.266293e-02  0 
 0  0  0 

 1.756906e-02  -1.210083e-01  0 
 -1.210083e-01  -4.868160e-02  0 
 0  0  0 

 2.080853e-01  -2.662225e-01  0 
 -2.662225e-01  4.158708e-02  0 
 0  0  0 

 4.800000e-02  -1.732352e-01  0 
 -1.732352e-01  2.089822e-01  0 
 0  0  0 

 -2.934469e-02  -1.984015e-02  0 
 -1.984015e-02  3.827500e-02  0 
 0  0  0 

 1.260172e-01  -9.581886e-02  0 
 -9.581886e-02  -8.154703e-02  0 
 0  0  0 

 9.971524e-03  -1.226324e-01  0 
 -1.226324e-01  -7.580500e-02  0 
 0  0  0 

 8.036826e-02  -1.396492e-01  0 
 -1.396492e-01  -3.698415e-02  0 
 0  0  0 

 5.283623e-02  -1.007658e-01  0 
 -1.007658e-01  -6.237273e-02  0 
 0  0  0 

 3.558623e-02  -7.193341e-02  0 
 -7.193341e-02  7.808839e-02  0 
 0  0  0 

 2.665044e-02  -1.404208e-01  0 
 -1.404208e-01  2.387258e-01  0 
 0  0  0 

 2.210748e-01  -2.608426e-01  0 
 -2.608426e-01  2.639546e-02  0 
 0  0  0 

 5.210693e-02  -1.002680e-01  0 
 -1.002680e-01  -5.795574e-02  0 
 0  0  0 

 2.183968e-03  -2.008899e-01  0 
 -2.008899e-01  -3.920419e-02  0 
 0  0  0 

 -2.168078e-05  -3.574007e-04  0 
 -3.574007e-04  -1.813127e-04  0 
 0  0  0 

 1.795353e-04  -4.665442e-04  0 
 -4.665442e-04  9.684669e-05  0 
 0  0  0 

 5.669483e-05  -4.573537e-04  0 
 -4.573537e-04  -5.413109e-05  0 
 0  0  0 

 3.411543e-04  -5.123365e-04  0 
 -5.123365e-04  3.505836e-05  0 
 0  0  0 

 3.556841e-04  -7.390567e-04  0 
 -7.390567e-04  3.012875e-04  0 
 0  0  0 

 2.875273e-04  -6.734765e-04  0 
 -6.734765e-04  2.479036e-04  0 
 0  0  0 

 4.072216e-04  -6.783069e-04  0 
 -6.783069e-04  2.645046e-04  0 
 0  0  0 

 3.070282e-04  -4.700912e-04  0 
 -4.700912e-04  -8.907989e-06  0 
 0  0  0 

 2.891274e-04  -4.642562e-04  0 
 -4.642562e-04  -8.504447e-06  0 
 0  0  0 

 4.046819e-04  -5.779596e-04  0 
 -5.779596e-04  6.713433e-05  0 
 0  0  0 

TENSORS element_stresses FLOAT
 4.429424e-05  -2.916725e-04  0 
 -2.916725e-04  -2.254497e-04  0 
 0  0  0 

 -3.709488e-04  -4.002920e-04  0 
 -4.002920e-04  -1.622870e-04  0 
 0  0  0 

 -2.440459e-04  -3.242469e-04  0 
 -3.242469e-04  -2.613537e-05  0 
 0  0  0 

 -1.469358e-04  -1.356383e-04  0 
 -1.356383e-04  -5.014278e-05  0 
 0  0  0 

 -3.738369e-04  -3.453975e-04  0 
 -3.453975e-04  -1.567221e-04  0 
 0  0  0 

 -1.340220e-04  -4.044549e-04  0 
 -4.044549e-04  -6.658458e-05  0 
 0  0  0 

 -4.879974e-04  -4.747327e-04  0 
 -4.747327e-04  -8.229916e-05  0 
 0  0  0 

 -5.179617e-04  -3.993148e-04  0 
 -3.993148e-04  -1.587132e-05  0 
 0  0  0 

 -3.705291e-04  -2.934640e-04  0 
 -2.934640e-04  -1.991543e-05  0 
 0  0  0 

 -3.697731e-04  -1.536866e-04  0 
 -1.536866e-04  -5.895655e-05  0 
 0  0  0 

 -4.036725e-04  -2.419722e-04  0 
 -2.419722e-04  1.074694e-04  0 
 0  0  0 

 -2.299303e-05  -3.752572e-04  0 
 -3.752572e-04  -3.213607e-04  0 
 0  0  0 

 1.374271e-04  -4.004124e-04  0 
 -4.004124e-04  -1.939402e-04  0 
 0  0  0 

 -4.954576e-05  -3.627219e-04  0 
 -3.627219e-04  2.158669e-04  0 
 0  0  0 

 -3.140072e-04  -4.644743e-04  0 
 -4.644743e-04  -1.078219e-04  0 
 0  0  0 

 -2.646172e-04  -2.282641e-04  0 
 -2.282641e-04  -4.540223e-05  0 
 0  0  0 

 -2.688147e-04  -2.551680e-04  0 
 -2.551680e-04  -8.535333e-05  0 
 0  0  0 

 -3.625780e-04  -2.473397e-04  0 
 -2.473397e-04  -1.371995e-06  0 
 0  0  0 

 1.021303e-01  -9.193645e-02  0 
 -9.193645e-02  -3.266293e-02  0 
 0  0  0 

 1.756906e-02  -1.210083e-01  0 
 -1.210083e-01  -4.868160e-02  0 
 0  0  0 

 2.080853e-01  -2.662225e-01  0 
 -2.662225e-01  4.158708e-02  0 
 0  0  0 

 4.800000e-02  -1.732352e-01  0 
 -1.732352e-01  2.089822e-01  0 
 0  0  0 

 -2.934469e-02  -1.984015e-02  0 
 -1.984015e-02  3.827500e-02  0 
 0  0  0 

 1.260172e-01  -9.581886e-02  0 
 -9.581886e-02  -8.154703e-02  0 
 0  0  0 

 9.971524e-03  -1.226324e-01  0 
 -1.226324e-01  -7.580500e-02  0 
 0  0  0 

 8.036826e-02  -1.396492e-01  0 
 -1.396492e-01  -3.698415e-02  0 
 0  0  0 

 5.283623e-02  -1.007658e-01  0 
 -1.007658e-01  -6.237273e-02  0 
 0  0  0 

 3.558623e-02  -7.193341e-02  0 
 -7.193341e-02  7.808839e-02  0 
 0  0  0 

 2.665044e-02  -1.404208e-01  0 
 -1.404208e-01  2.387258e-01  0 
 0  0  0 

 2.210748e-01  -2.608426e-01  0 
 -2.608426e-01  2.639546e-02  0 
 0  0  0 

 5.210693e-02  -1.002680e-01  0 
 -1.002680e-01  -5.795574e-02  0 
 0  0  0 

 2.183968e-03  -2.008899e-01  0 
 -2.008899e-01  -3.920419e-02  0 
 0  0  0 

 -2.168078e-05  -3.574007e-04  0 
 -3.574007e-04  -1.813127e-04  0 
 0  0  0 

 1.795353e-04  -4.665442e-04  0 
 -4.665442e-04  9.684669e-05  0 
 0  0  0 

 5.669483e-05  -4.573537e-04  0 
 -4.573537e-04  -5.413109e-05  0 
 0  0  0 

 3.411543e-04  -5.123365e-04  0 
 -5.123365e-04  3.505836e-05  0 
 0  0  0 

 3.556841e-04  -7.390567e-04  0 
 -7.390567e-04  3.012875e-04  0 
 0  0  0 

 2.875273e-04  -6.734765e-04  0 
 -6.734765e-04  2.479036e-04  0 
 0  0  0 

 4.072216e-04  -6.783069e-04  0 
 -6.783069e-04  2.645046e-04  0 
 0  0  0 

 3.070282e-04  -4.700912e-04  0 
 -4.700912e-04  -8.907989e-06  0 
 0  0  0 

 2.891274e-04  -4.642562e-04  0 
 -4.642562e-04  -8.504447e-06  0 
 0  0  0 

 4.046819e-04  -5.779596e-04  0 
 -5.779596e-04  6.713433e-05  0 
 0  0  0 

