# vtk DataFile Version 3.1
this is an vtk file created by FEMAC
ASCII
DATASET UNSTRUCTURED_GRID
POINTS 31 FLOAT
0.000000 0.000000 0.000000
1.000000 0.000000 0.000000
0.000000 1.000000 0.000000
1.000000 1.000000 0.000000
0.250000 0.000000 0.000000
0.500000 0.000000 0.000000
0.750000 0.000000 0.000000
0.250000 1.000000 0.000000
0.500000 1.000000 0.000000
0.750000 1.000000 0.000000
0.000000 0.250000 0.000000
0.000000 0.500000 0.000000
0.000000 0.750000 0.000000
1.000000 0.250000 0.000000
1.000000 0.500000 0.000000
1.000000 0.750000 0.000000
0.354092 0.524248 0.000000
0.804015 0.668485 0.000000
0.176539 0.642203 0.000000
0.279348 0.239607 0.000000
0.653111 0.819895 0.000000
0.376524 0.781795 0.000000
0.167416 0.439302 0.000000
0.576925 0.611220 0.000000
0.521903 0.318733 0.000000
0.757669 0.416286 0.000000
0.132337 0.122402 0.000000
0.841425 0.847676 0.000000
0.160613 0.834800 0.000000
0.734095 0.185003 0.000000
0.871024 0.108751 0.000000
CELLS 43 172 
3 17 14 15
3 11 18 12
3 5 19  4
3 16 24 23
3 17 25 14
3 25 17 23
3 7 21  8
3 10 22 11
3 20  9  8
3 20 23 17
3 23 24 25
3 19 22 10
3 20  8 21
3 16 21 18
3 16 23 21
3 20 21 23
3 11 22 18
3 16 22 19
3 22 16 18
3 19 24 16
3 24 19  5
3 4 26  0
3 10 26 19
3 26 10  0
3 26  4 19
3 9 27  3
3 15 27 17
3 27 15  3
3 28  7  2
3 28 12 18
3 12 28  2
3 28 21  7
3 18 21 28
3 20 27  9
3 20 17 27
3 6 29  5
3 29 24  5
3 30  6  1
3 13 30  1
3 6 30 29
3 29 25 24
3 25 29 13
3 30 13 29
CELL_TYPES 43
5 5 5 5 5 5 5 5 5 5 5 5 5 5 5 5 5 5 5 5 5 5 5 5 5 5 5 5 5 5 5 5 5 5 5 5 5 5 5 5 5 5 5 
POINT_DATA 31
VECTORS displacement_ITER1 FLOAT
 0  0  0 
 -2.712178e-04  -3.418371e-04  0 
 0  0  0 
 -5.200537e-07  -2.392493e-04  0 
 -8.488915e-05  -1.015732e-04  0 
 -1.473508e-04  -1.617170e-04  0 
 -2.043594e-04  -2.375235e-04  0 
 1.719885e-05  -2.564291e-05  0 
 2.363358e-05  -6.627035e-05  0 
 2.005551e-05  -1.379365e-04  0 
 0  0  0 
 0  0  0 
 0  0  0 
 -1.590668e-04  -2.781202e-04  0 
 -1.079390e-04  -2.267046e-04  0 
 -5.778314e-05  -2.264528e-04  0 
 -3.101401e-05  -4.737020e-05  0 
 -5.977733e-05  -1.645227e-04  0 
 -8.659248e-06  -1.123044e-05  0 
 -4.370184e-05  -5.106419e-05  0 
 -1.966351e-05  -1.111855e-04  0 
 -9.058995e-06  -4.045125e-05  0 
 -1.539367e-05  -1.734307e-05  0 
 -4.492156e-05  -9.918001e-05  0 
 -7.630572e-05  -1.089647e-04  0 
 -9.356092e-05  -1.680263e-04  0 
 -2.320830e-05  -2.667457e-05  0 
 -2.780172e-05  -1.762173e-04  0 
 -1.056927e-06  -7.847657e-06  0 
 -1.451209e-04  -1.932477e-04  0 
 -1.943391e-04  -2.554904e-04  0 
VECTORS displacement_ITER2 FLOAT
 0  0  0 
 -2.217764e-04  -3.036243e-04  0 
 0  0  0 
 -7.577333e-05  -2.177596e-04  0 
 -7.706807e-05  -9.786020e-05  0 
 -1.292249e-04  -1.559320e-04  0 
 -1.730348e-04  -2.203440e-04  0 
 8.690461e-06  -2.669989e-05  0 
 1.256814e-06  -6.808793e-05  0 
 -2.335264e-05  -1.323056e-04  0 
 0  0  0 
 0  0  0 
 0  0  0 
 -1.365598e-04  -2.547392e-04  0 
 -9.943844e-05  -2.033471e-04  0 
 -8.027581e-05  -2.023581e-04  0 
 -3.317260e-05  -5.875384e-05  0 
 -7.151681e-05  -1.650886e-04  0 
 -1.136278e-05  -1.912927e-05  0 
 -3.932903e-05  -5.648312e-05  0 
 -4.355706e-05  -1.198470e-04  0 
 -1.952926e-05  -5.132250e-05  0 
 -1.607465e-05  -2.411441e-05  0 
 -5.140887e-05  -1.105309e-04  0 
 -6.792549e-05  -1.136535e-04  0 
 -8.446434e-05  -1.665375e-04  0 
 -2.151122e-05  -2.804378e-05  0 
 -6.444993e-05  -1.758987e-04  0 
 -4.578392e-06  -1.215296e-05  0 
 -1.248114e-04  -1.864924e-04  0 
 -1.634123e-04  -2.366868e-04  0 
VECTORS displacement_ITER3 FLOAT
 0  0  0 
 -1.336480e-04  -2.206555e-04  0 
 0  0  0 
 -2.136421e-04  -1.638173e-04  0 
 -5.884809e-05  -8.243495e-05  0 
 -9.240786e-05  -1.315275e-04  0 
 -1.154711e-04  -1.745707e-04  0 
 -3.964179e-06  -2.253284e-05  0 
 -2.994197e-05  -6.169401e-05  0 
 -8.547573e-05  -1.113350e-04  0 
 0  0  0 
 0  0  0 
 0  0  0 
 -9.895849e-05  -1.949153e-04  0 
 -7.176751e-05  -1.368535e-04  0 
 -8.695208e-05  -1.429398e-04  0 
 -3.340059e-05  -6.725207e-05  0 
 -7.662192e-05  -1.469924e-04  0 
 -1.456276e-05  -2.766803e-05  0 
 -2.933661e-05  -5.713107e-05  0 
 -7.550356e-05  -1.229814e-04  0 
 -3.393088e-05  -5.993835e-05  0 
 -1.562712e-05  -3.056153e-05  0 
 -5.599846e-05  -1.130501e-04  0 
 -4.983982e-05  -1.060600e-04  0 
 -6.441806e-05  -1.407049e-04  0 
 -1.699591e-05  -2.663050e-05  0 
 -1.134021e-04  -1.710664e-04  0 
 -9.285728e-06  -1.546939e-05  0 
 -8.653154e-05  -1.566360e-04  0 
 -1.079267e-04  -1.872151e-04  0 
VECTORS displacement_ITER4 FLOAT
 0  0  0 
 -8.502237e-05  -1.447577e-04  0 
 0  0  0 
 -3.981576e-04  -2.776595e-05  0 
 -3.654923e-05  -5.536316e-05  0 
 -5.391338e-05  -8.604716e-05  0 
 -7.063428e-05  -1.127471e-04  0 
 -3.556805e-05  3.235711e-06  0 
 -1.010379e-04  -1.039030e-05  0 
 -2.061888e-04  -1.383057e-05  0 
 0  0  0 
 0  0  0 
 0  0  0 
 -5.865154e-05  -1.276957e-04  0 
 -4.926928e-05  -2.205497e-05  0 
 -1.314626e-04  6.519184e-06  0 
 -3.370618e-05  -6.230284e-05  0 
 -9.486357e-05  -7.647630e-05  0 
 -1.975161e-05  -3.252062e-05  0 
 -1.670328e-05  -4.480181e-05  0 
 -1.341666e-04  -7.974062e-05  0 
 -5.782992e-05  -5.344684e-05  0 
 -1.517434e-05  -3.153047e-05  0 
 -6.235979e-05  -9.041366e-05  0 
 -2.749490e-05  -7.348607e-05  0 
 -3.462187e-05  -8.201128e-05  0 
 -1.081598e-05  -1.951208e-05  0 
 -2.046534e-04  -8.829269e-05  0 
 -1.773497e-05  -1.393799e-05  0 
 -4.974272e-05  -9.842409e-05  0 
 -6.594230e-05  -1.210224e-04  0 
VECTORS displacement_ITER5 FLOAT
 0  0  0 
 -2.508135e-05  -4.656608e-05  0 
 0  0  0 
 -5.413173e-04  1.387122e-04  0 
 -1.234530e-05  -2.842806e-05  0 
 -1.120884e-05  -3.845663e-05  0 
 -1.452917e-05  -3.597734e-05  0 
 -6.053688e-05  2.883030e-05  0 
 -1.510556e-04  3.130473e-05  0 
 -2.930616e-04  7.206990e-05  0 
 0  0  0 
 0  0  0 
 0  0  0 
 -1.815129e-05  -2.662342e-05  0 
 -4.572155e-05  8.715666e-05  0 
 -1.622467e-04  1.313490e-04  0 
 -3.432893e-05  -5.141625e-05  0 
 -1.114205e-04  -2.680492e-06  0 
 -2.365072e-05  -3.267333e-05  0 
 -6.717120e-06  -3.345419e-05  0 
 -1.733836e-04  -3.229068e-05  0 
 -7.678423e-05  -3.889303e-05  0 
 -1.442555e-05  -2.990872e-05  0 
 -6.983039e-05  -5.720684e-05  0 
 -1.185926e-05  -4.102004e-05  0 
 -2.101286e-05  -2.207059e-05  0 
 -4.962168e-06  -1.378990e-05  0 
 -2.618394e-04  -4.612632e-06  0 
 -2.454554e-05  -9.182917e-06  0 
 -1.217777e-05  -3.306995e-05  0 
 -1.557293e-05  -3.462199e-05  0 
VECTORS displacement_ITER6 FLOAT
 0  0  0 
 -9.031474e-06  -2.855021e-05  0 
 0  0  0 
 -5.485899e-04  1.007979e-04  0 
 -1.297449e-05  -3.315476e-05  0 
 -9.580291e-06  -4.518405e-05  0 
 -5.887400e-06  -3.433382e-05  0 
 -5.637814e-05  2.454026e-05  0 
 -1.422731e-04  1.932596e-05  0 
 -2.845708e-04  4.738048e-05  0 
 0  0  0 
 0  0  0 
 0  0  0 
 -1.958608e-05  -1.325412e-05  0 
 -5.119594e-05  4.930165e-05  0 
 -1.594312e-04  9.657349e-05  0 
 -3.742937e-05  -5.739779e-05  0 
 -1.112218e-04  -2.668067e-05  0 
 -2.436703e-05  -3.432183e-05  0 
 -8.606842e-06  -3.981253e-05  0 
 -1.722103e-04  -5.199370e-05  0 
 -7.728061e-05  -4.386258e-05  0 
 -1.559106e-05  -3.297005e-05  0 
 -7.442376e-05  -6.811748e-05  0 
 -1.590110e-05  -4.992115e-05  0 
 -2.803504e-05  -3.189151e-05  0 
 -5.747703e-06  -1.683088e-05  0 
 -2.611013e-04  -3.771628e-05  0 
 -2.434904e-05  -1.005655e-05  0 
 -1.196696e-05  -3.790960e-05  0 
 -9.215051e-06  -2.883640e-05  0 
VECTORS displacement_ITER7 FLOAT
 0  0  0 
 9.911744e-06  5.618925e-06  0 
 0  0  0 
 -5.363029e-04  1.025557e-04  0 
 -8.517223e-06  -2.976525e-05  0 
 -9.158717e-07  -3.822078e-05  0 
 9.779757e-06  -1.481888e-05  0 
 -5.606537e-05  2.541614e-05  0 
 -1.388108e-04  2.034480e-05  0 
 -2.773575e-04  4.781766e-05  0 
 0  0  0 
 0  0  0 
 0  0  0 
 -1.571108e-05  2.300868e-05  0 
 -5.880045e-05  3.139363e-05  0 
 -1.559359e-04  9.082101e-05  0 
 -3.765233e-05  -5.396693e-05  0 
 -1.078974e-04  -2.460432e-05  0 
 -2.417436e-05  -3.251165e-05  0 
 -8.457452e-06  -3.935871e-05  0 
 -1.674145e-04  -4.885943e-05  0 
 -7.642768e-05  -3.984210e-05  0 
 -1.534656e-05  -3.192259e-05  0 
 -7.490319e-05  -6.162170e-05  0 
 -1.704731e-05  -4.604335e-05  0 
 -3.277394e-05  -2.440206e-05  0 
 -5.084587e-06  -1.697748e-05  0 
 -2.535622e-04  -3.574472e-05  0 
 -2.429650e-05  -8.908692e-06  0 
 -6.440492e-06  -2.522665e-05  0 
 3.034564e-06  -3.455924e-06  0 
VECTORS displacement_ITER8 FLOAT
 0  0  0 
 -7.120079e-06  -3.519767e-05  0 
 0  0  0 
 -5.317204e-04  3.134508e-05  0 
 -1.710948e-05  -4.117132e-05  0 
 -1.448468e-05  -5.794424e-05  0 
 -7.802835e-06  -4.652745e-05  0 
 -5.038112e-05  1.774906e-05  0 
 -1.304501e-04  3.133438e-06  0 
 -2.685062e-04  1.583300e-05  0 
 0  0  0 
 0  0  0 
 0  0  0 
 -2.180052e-05  -2.507760e-05  0 
 -5.470455e-05  1.049396e-05  0 
 -1.538433e-04  5.308303e-05  0 
 -3.984328e-05  -6.535697e-05  0 
 -1.106394e-04  -5.666803e-05  0 
 -2.459789e-05  -3.660071e-05  0 
 -1.139120e-05  -4.714831e-05  0 
 -1.684567e-04  -7.542260e-05  0 
 -7.600736e-05  -5.149172e-05  0 
 -1.670580e-05  -3.635577e-05  0 
 -7.732531e-05  -8.385174e-05  0 
 -2.061767e-05  -6.325785e-05  0 
 -3.421140e-05  -5.102884e-05  0 
 -7.242599e-06  -2.025125e-05  0 
 -2.566915e-04  -7.737471e-05  0 
 -2.346309e-05  -1.188491e-05  0 
 -1.599989e-05  -5.292268e-05  0 
 -1.095919e-05  -4.056298e-05  0 
VECTORS displacement_ITER9 FLOAT
 0  0  0 
 -1.504067e-05  -5.447306e-05  0 
 0  0  0 
 -5.054036e-04  -2.852616e-05  0 
 -2.196218e-05  -4.821498e-05  0 
 -2.186954e-05  -6.968240e-05  0 
 -1.566830e-05  -6.234675e-05  0 
 -4.331469e-05  1.106220e-05  0 
 -1.179591e-04  -1.070286e-05  0 
 -2.490542e-04  -1.194566e-05  0 
 0  0  0 
 0  0  0 
 0  0  0 
 -2.572851e-05  -4.514237e-05  0 
 -5.576341e-05  -1.801904e-05  0 
 -1.454207e-04  1.599988e-05  0 
 -4.080567e-05  -7.112007e-05  0 
 -1.083139e-04  -8.058060e-05  0 
 -2.420963e-05  -3.790138e-05  0 
 -1.378860e-05  -5.213142e-05  0 
 -1.619803e-04  -9.370742e-05  0 
 -7.296426e-05  -5.778236e-05  0 
 -1.732177e-05  -3.837715e-05  0 
 -7.753579e-05  -9.657425e-05  0 
 -2.422421e-05  -7.404705e-05  0 
 -3.779522e-05  -6.834596e-05  0 
 -8.638164e-06  -2.257163e-05  0 
 -2.474099e-04  -1.094024e-04  0 
 -2.198173e-05  -1.327845e-05  0 
 -2.165717e-05  -6.851510e-05  0 
 -1.742282e-05  -5.806225e-05  0 
VECTORS displacement_ITER10 FLOAT
 0  0  0 
 -2.379328e-05  -7.398291e-05  0 
 0  0  0 
 -4.844781e-04  -8.030123e-05  0 
 -2.662334e-05  -5.474647e-05  0 
 -2.910530e-05  -8.065893e-05  0 
 -2.378485e-05  -7.766185e-05  0 
 -3.734735e-05  4.965316e-06  0 
 -1.074250e-04  -2.311566e-05  0 
 -2.334122e-04  -3.601579e-05  0 
 0  0  0 
 0  0  0 
 0  0  0 
 -3.004534e-05  -6.443052e-05  0 
 -5.505489e-05  -4.146277e-05  0 
 -1.389991e-04  -1.547222e-05  0 
 -4.168241e-05  -7.656925e-05  0 
 -1.064854e-04  -1.022100e-04  0 
 -2.392053e-05  -3.927881e-05  0 
 -1.593019e-05  -5.661141e-05  0 
 -1.568474e-04  -1.103544e-04  0 
 -7.042784e-05  -6.380615e-05  0 
 -1.790672e-05  -4.029655e-05  0 
 -7.769504e-05  -1.085501e-04  0 
 -2.735248e-05  -8.389304e-05  0 
 -4.046644e-05  -8.437201e-05  0 
 -9.931267e-06  -2.462775e-05  0 
 -2.405219e-04  -1.374072e-04  0 
 -2.074213e-05  -1.473022e-05  0 
 -2.720029e-05  -8.325321e-05  0 
 -2.415384e-05  -7.508442e-05  0 
VECTORS displacement_ITER11 FLOAT
 0  0  0 
 -2.251538e-05  -7.196275e-05  0 
 0  0  0 
 -4.836604e-04  -8.253023e-05  0 
 -2.646786e-05  -5.485106e-05  0 
 -2.866571e-05  -8.066479e-05  0 
 -2.274669e-05  -7.671237e-05  0 
 -3.706561e-05  4.778162e-06  0 
 -1.068087e-04  -2.377984e-05  0 
 -2.326412e-04  -3.724715e-05  0 
 0  0  0 
 0  0  0 
 0  0  0 
 -2.974722e-05  -6.230034e-05  0 
 -5.587728e-05  -4.445339e-05  0 
 -1.386355e-04  -1.740362e-05  0 
 -4.184477e-05  -7.668514e-05  0 
 -1.062579e-04  -1.032682e-04  0 
 -2.395500e-05  -3.927078e-05  0 
 -1.605955e-05  -5.691475e-05  0 
 -1.565030e-04  -1.112000e-04  0 
 -7.041539e-05  -6.389144e-05  0 
 -1.795474e-05  -4.038389e-05  0 
 -7.793367e-05  -1.087385e-04  0 
 -2.767644e-05  -8.418837e-05  0 
 -4.118897e-05  -8.455687e-05  0 
 -9.952242e-06  -2.479941e-05  0 
 -2.400506e-04  -1.388528e-04  0 
 -2.072336e-05  -1.470728e-05  0 
 -2.695455e-05  -8.289507e-05  0 
 -2.334272e-05  -7.370387e-05  0 
VECTORS displacement_ITER12 FLOAT
 0  0  0 
 -2.299408e-05  -7.287723e-05  0 
 0  0  0 
 -4.843766e-04  -8.186206e-05  0 
 -2.656616e-05  -5.487306e-05  0 
 -2.888518e-05  -8.077209e-05  0 
 -2.321010e-05  -7.725371e-05  0 
 -3.716169e-05  4.790480e-06  0 
 -1.070940e-04  -2.361817e-05  0 
 -2.331314e-04  -3.687158e-05  0 
 0  0  0 
 0  0  0 
 0  0  0 
 -2.986091e-05  -6.344820e-05  0 
 -5.539722e-05  -4.315135e-05  0 
 -1.388417e-04  -1.666343e-05  0 
 -4.180722e-05  -7.673951e-05  0 
 -1.063958e-04  -1.030237e-04  0 
 -2.395845e-05  -3.932450e-05  0 
 -1.601699e-05  -5.685602e-05  0 
 -1.567464e-04  -1.110556e-04  0 
 -7.046163e-05  -6.396918e-05  0 
 -1.794907e-05  -4.039631e-05  0 
 -7.788286e-05  -1.088224e-04  0 
 -2.755461e-05  -8.418043e-05  0 
 -4.090284e-05  -8.460565e-05  0 
 -9.953799e-06  -2.475510e-05  0 
 -2.404318e-04  -1.384856e-04  0 
 -2.074074e-05  -1.474783e-05  0 
 -2.707598e-05  -8.318267e-05  0 
 -2.369985e-05  -7.444661e-05  0 
VECTORS displacement_ITER13 FLOAT
 0  0  0 
 -2.283780e-05  -7.253457e-05  0 
 0  0  0 
 -4.842321e-04  -8.202032e-05  0 
 -2.656325e-05  -5.488305e-05  0 
 -2.887089e-05  -8.079415e-05  0 
 -2.311769e-05  -7.715343e-05  0 
 -3.713552e-05  4.774576e-06  0 
 -1.070359e-04  -2.365682e-05  0 
 -2.330349e-04  -3.695351e-05  0 
 0  0  0 
 0  0  0 
 0  0  0 
 -3.004498e-05  -6.301017e-05  0 
 -5.543997e-05  -4.332638e-05  0 
 -1.387937e-04  -1.679470e-05  0 
 -4.181355e-05  -7.673161e-05  0 
 -1.063669e-04  -1.030813e-04  0 
 -2.395769e-05  -3.931604e-05  0 
 -1.602359e-05  -5.686920e-05  0 
 -1.566990e-04  -1.110954e-04  0 
 -7.044368e-05  -6.397056e-05  0 
 -1.794964e-05  -4.039548e-05  0 
 -7.787657e-05  -1.088335e-04  0 
 -2.758215e-05  -8.418012e-05  0 
 -4.092315e-05  -8.463102e-05  0 
 -9.955050e-06  -2.476319e-05  0 
 -2.403610e-04  -1.385669e-04  0 
 -2.073414e-05  -1.474544e-05  0 
 -2.710671e-05  -8.316438e-05  0 
 -2.366473e-05  -7.425506e-05  0 
VECTORS displacement_ITER14 FLOAT
 0  0  0 
 -2.283562e-05  -7.252574e-05  0 
 0  0  0 
 -4.842459e-04  -8.201066e-05  0 
 -2.656515e-05  -5.488412e-05  0 
 -2.887458e-05  -8.079818e-05  0 
 -2.312041e-05  -7.715692e-05  0 
 -3.713760e-05  4.775030e-06  0 
 -1.070418e-04  -2.365332e-05  0 
 -2.330441e-04  -3.694732e-05  0 
 0  0  0 
 0  0  0 
 0  0  0 
 -3.006467e-05  -6.299707e-05  0 
 -5.544211e-05  -4.331321e-05  0 
 -1.387989e-04  -1.678466e-05  0 
 -4.181355e-05  -7.673235e-05  0 
 -1.063712e-04  -1.030758e-04  0 
 -2.395805e-05  -3.931692e-05  0 
 -1.602286e-05  -5.686877e-05  0 
 -1.567047e-04  -1.110924e-04  0 
 -7.044475e-05  -6.397215e-05  0 
 -1.794968e-05  -4.039592e-05  0 
 -7.787583e-05  -1.088359e-04  0 
 -2.758117e-05  -8.417927e-05  0 
 -4.091716e-05  -8.463349e-05  0 
 -9.955104e-06  -2.476270e-05  0 
 -2.403687e-04  -1.385613e-04  0 
 -2.073454e-05  -1.474615e-05  0 
 -2.711212e-05  -8.316900e-05  0 
 -2.367011e-05  -7.425512e-05  0 
CELL_DATA 43
TENSORS element_stresses FLOAT
 5.555060e-03  4.825610e-02  0 
 4.825610e-02  1.077807e-01  0 
 0  0  0 

 -1.491313e-01  -1.713148e-01  0 
 -1.713148e-01  -4.473938e-02  0 
 0  0  0 

 -8.696434e-03  -4.502033e-02  0 
 -4.502033e-02  1.804401e-03  0 
 0  0  0 

 -1.326879e-01  -2.097701e-01  0 
 -2.097701e-01  -1.015363e-01  0 
 0  0  0 

 -1.901277e-03  -4.332397e-02  0 
 -4.332397e-02  -1.121126e-01  0 
 0  0  0 

 -9.606739e-02  -1.554088e-01  0 
 -1.554088e-01  -1.103876e-01  0 
 0  0  0 

 -2.251431e-01  -9.477306e-02  0 
 -9.477306e-02  1.815792e-01  0 
 0  0  0 

 -1.178200e-01  -1.856086e-01  0 
 -1.856086e-01  -3.534601e-02  0 
 0  0  0 

 -4.087078e-01  -1.583860e-01  0 
 -1.583860e-01  3.176713e-01  0 
 0  0  0 

 -4.386650e-02  -2.574349e-01  0 
 -2.574349e-01  -3.526935e-02  0 
 0  0  0 

 -1.262628e-02  -1.070730e-01  0 
 -1.070730e-01  -9.481066e-02  0 
 0  0  0 

 -7.542177e-02  -1.903595e-01  0 
 -1.903595e-01  -5.491809e-02  0 
 0  0  0 

 -2.436226e-01  -1.560526e-01  0 
 -1.560526e-01  2.318623e-01  0 
 0  0  0 

 -1.600242e-01  -2.037661e-01  0 
 -2.037661e-01  1.617787e-02  0 
 0  0  0 

 -1.135504e-01  -2.074208e-01  0 
 -2.074208e-01  3.021321e-02  0 
 0  0  0 

 -2.828173e-01  -3.505279e-01  0 
 -3.505279e-01  -3.073904e-02  0 
 0  0  0 

 -1.222944e-01  -1.999362e-01  0 
 -1.999362e-01  -2.077996e-02  0 
 0  0  0 

 -1.150762e-01  -1.921382e-01  0 
 -1.921382e-01  -5.572828e-02  0 
 0  0  0 

 -1.235605e-01  -1.734986e-01  0 
 -1.734986e-01  -2.270382e-02  0 
 0  0  0 

 -3.624761e-02  -1.412749e-01  0 
 -1.412749e-01  -5.486040e-02  0 
 0  0  0 

 -5.602228e-02  -8.010518e-02  0 
 -8.010518e-02  -1.974316e-02  0 
 0  0  0 

 -1.052151e-01  -1.430632e-01  0 
 -1.430632e-01  3.484892e-03  0 
 0  0  0 

 -6.809591e-02  -1.422789e-01  0 
 -1.422789e-01  -3.818337e-02  0 
 0  0  0 

 -8.266526e-02  -1.439373e-01  0 
 -1.439373e-01  -2.479958e-02  0 
 0  0  0 

 -8.623632e-02  -1.387275e-01  0 
 -1.387275e-01  -5.405719e-03  0 
 0  0  0 

 -9.199302e-01  -5.655821e-01  0 
 -5.655821e-01  2.829232e-01  0 
 0  0  0 

 7.049471e-02  -1.605447e-01  0 
 -1.605447e-01  -2.963757e-01  0 
 0  0  0 

 -3.174544e-01  -5.958078e-01  0 
 -5.958078e-01  -3.561403e-01  0 
 0  0  0 

 -1.276932e-01  1.434767e-04  0 
 1.434767e-04  6.952388e-02  0 
 0  0  0 

 -1.073337e-01  -1.128479e-01  0 
 -1.128479e-01  8.276436e-02  0 
 0  0  0 

 -1.418643e-01  -7.062452e-02  0 
 -7.062452e-02  -4.255930e-02  0 
 0  0  0 

 -1.766951e-01  -1.179471e-01  0 
 -1.179471e-01  1.601999e-01  0 
 0  0  0 

 -2.170533e-01  -1.562290e-01  0 
 -1.562290e-01  4.585952e-02  0 
 0  0  0 

 -2.801508e-01  -3.270789e-01  0 
 -3.270789e-01  4.483545e-01  0 
 0  0  0 

 -4.356543e-01  -6.124719e-01  0 
 -6.124719e-01  -3.036001e-01  0 
 0  0  0 

 1.499252e-02  -3.871292e-03  0 
 -3.871292e-03  -2.674723e-02  0 
 0  0  0 

 1.566666e-03  1.461173e-03  0 
 1.461173e-03  -1.001118e-02  0 
 0  0  0 

 3.252190e-03  9.386413e-03  0 
 9.386413e-03  7.043398e-03  0 
 0  0  0 

 -7.117782e-03  1.279233e-02  0 
 1.279233e-02  3.597932e-02  0 
 0  0  0 

 5.830432e-03  2.228735e-02  0 
 2.228735e-02  -2.650408e-02  0 
 0  0  0 

 -3.867226e-02  -4.274914e-02  0 
 -4.274914e-02  -1.800750e-02  0 
 0  0  0 

 -8.259405e-04  1.487211e-02  0 
 1.487211e-02  -1.467136e-02  0 
 0  0  0 

 4.374477e-03  2.103946e-02  0 
 2.103946e-02  1.474366e-02  0 
 0  0  0 

TENSORS element_stresses FLOAT
 5.555060e-03  4.825610e-02  0 
 4.825610e-02  1.077807e-01  0 
 0  0  0 

 -1.491313e-01  -1.713148e-01  0 
 -1.713148e-01  -4.473938e-02  0 
 0  0  0 

 -8.696434e-03  -4.502033e-02  0 
 -4.502033e-02  1.804401e-03  0 
 0  0  0 

 -1.326879e-01  -2.097701e-01  0 
 -2.097701e-01  -1.015363e-01  0 
 0  0  0 

 -1.901277e-03  -4.332397e-02  0 
 -4.332397e-02  -1.121126e-01  0 
 0  0  0 

 -9.606739e-02  -1.554088e-01  0 
 -1.554088e-01  -1.103876e-01  0 
 0  0  0 

 -2.251431e-01  -9.477306e-02  0 
 -9.477306e-02  1.815792e-01  0 
 0  0  0 

 -1.178200e-01  -1.856086e-01  0 
 -1.856086e-01  -3.534601e-02  0 
 0  0  0 

 -4.087078e-01  -1.583860e-01  0 
 -1.583860e-01  3.176713e-01  0 
 0  0  0 

 -4.386650e-02  -2.574349e-01  0 
 -2.574349e-01  -3.526935e-02  0 
 0  0  0 

 -1.262628e-02  -1.070730e-01  0 
 -1.070730e-01  -9.481066e-02  0 
 0  0  0 

 -7.542177e-02  -1.903595e-01  0 
 -1.903595e-01  -5.491809e-02  0 
 0  0  0 

 -2.436226e-01  -1.560526e-01  0 
 -1.560526e-01  2.318623e-01  0 
 0  0  0 

 -1.600242e-01  -2.037661e-01  0 
 -2.037661e-01  1.617787e-02  0 
 0  0  0 

 -1.135504e-01  -2.074208e-01  0 
 -2.074208e-01  3.021321e-02  0 
 0  0  0 

 -2.828173e-01  -3.505279e-01  0 
 -3.505279e-01  -3.073904e-02  0 
 0  0  0 

 -1.222944e-01  -1.999362e-01  0 
 -1.999362e-01  -2.077996e-02  0 
 0  0  0 

 -1.150762e-01  -1.921382e-01  0 
 -1.921382e-01  -5.572828e-02  0 
 0  0  0 

 -1.235605e-01  -1.734986e-01  0 
 -1.734986e-01  -2.270382e-02  0 
 0  0  0 

 -3.624761e-02  -1.412749e-01  0 
 -1.412749e-01  -5.486040e-02  0 
 0  0  0 

 -5.602228e-02  -8.010518e-02  0 
 -8.010518e-02  -1.974316e-02  0 
 0  0  0 

 -1.052151e-01  -1.430632e-01  0 
 -1.430632e-01  3.484892e-03  0 
 0  0  0 

 -6.809591e-02  -1.422789e-01  0 
 -1.422789e-01  -3.818337e-02  0 
 0  0  0 

 -8.266526e-02  -1.439373e-01  0 
 -1.439373e-01  -2.479958e-02  0 
 0  0  0 

 -8.623632e-02  -1.387275e-01  0 
 -1.387275e-01  -5.405719e-03  0 
 0  0  0 

 -9.199302e-01  -5.655821e-01  0 
 -5.655821e-01  2.829232e-01  0 
 0  0  0 

 7.049471e-02  -1.605447e-01  0 
 -1.605447e-01  -2.963757e-01  0 
 0  0  0 

 -3.174544e-01  -5.958078e-01  0 
 -5.958078e-01  -3.561403e-01  0 
 0  0  0 

 -1.276932e-01  1.434767e-04  0 
 1.434767e-04  6.952388e-02  0 
 0  0  0 

 -1.073337e-01  -1.128479e-01  0 
 -1.128479e-01  8.276436e-02  0 
 0  0  0 

 -1.418643e-01  -7.062452e-02  0 
 -7.062452e-02  -4.255930e-02  0 
 0  0  0 

 -1.766951e-01  -1.179471e-01  0 
 -1.179471e-01  1.601999e-01  0 
 0  0  0 

 -2.170533e-01  -1.562290e-01  0 
 -1.562290e-01  4.585952e-02  0 
 0  0  0 

 -2.801508e-01  -3.270789e-01  0 
 -3.270789e-01  4.483545e-01  0 
 0  0  0 

 -4.356543e-01  -6.124719e-01  0 
 -6.124719e-01  -3.036001e-01  0 
 0  0  0 

 1.499252e-02  -3.871292e-03  0 
 -3.871292e-03  -2.674723e-02  0 
 0  0  0 

 1.566666e-03  1.461173e-03  0 
 1.461173e-03  -1.001118e-02  0 
 0  0  0 

 3.252190e-03  9.386413e-03  0 
 9.386413e-03  7.043398e-03  0 
 0  0  0 

 -7.117782e-03  1.279233e-02  0 
 1.279233e-02  3.597932e-02  0 
 0  0  0 

 5.830432e-03  2.228735e-02  0 
 2.228735e-02  -2.650408e-02  0 
 0  0  0 

 -3.867226e-02  -4.274914e-02  0 
 -4.274914e-02  -1.800750e-02  0 
 0  0  0 

 -8.259405e-04  1.487211e-02  0 
 1.487211e-02  -1.467136e-02  0 
 0  0  0 

 4.374477e-03  2.103946e-02  0 
 2.103946e-02  1.474366e-02  0 
 0  0  0 

