# vtk DataFile Version 3.1
this is an vtk file created by FEMAC
ASCII
DATASET UNSTRUCTURED_GRID
POINTS 31 FLOAT
5.000000 5.000000 0.000000
6.000000 4.000000 0.000000
6.000000 5.000000 0.000000
5.000000 4.250000 0.000000
5.000000 4.500000 0.000000
5.000000 4.750000 0.000000
5.000000 5.250000 0.000000
5.500000 4.000000 0.000000
5.750000 4.000000 0.000000
5.250000 5.000000 0.000000
5.500000 5.000000 0.000000
5.750000 5.000000 0.000000
6.000000 4.250000 0.000000
6.000000 4.500000 0.000000
6.000000 4.750000 0.000000
4.661856 4.507893 0.000000
4.832250 4.761003 0.000000
4.832172 4.245757 0.000000
5.805000 4.255000 0.000000
5.361666 4.785642 0.000000
5.824607 4.643596 0.000000
5.630982 4.182178 0.000000
5.161848 4.344773 0.000000
5.223020 4.573994 0.000000
5.460006 4.535834 0.000000
5.681647 4.425464 0.000000
5.631588 4.748141 0.000000
5.841239 4.828347 0.000000
5.155331 4.836478 0.000000
5.384851 4.278430 0.000000
5.255000 5.195000 0.000000
CELLS 42 168 
3 16  5  0
3 16  4  5
3 16 15  4
3 4 17  3
3 15 17  4
3 13 18 12
3 19 10  9
3 3 22  4
3 23  5  4
3 8 21  7
3 14 20 13
3 25 21 18
3 23 24 19
3 18 21  8
3 13 25 18
3 13 20 25
3 25 20 26
3 1 18  8
3 1 12 18
3 11 27  2
3 27 14  2
3 5 28  0
3 9 28 19
3 28  9  0
3 27 20 14
3 23 28  5
3 23 19 28
3 4 22 23
3 26 24 25
3 21 29  7
3 23 22 29
3 29 21 25
3 25 24 29
3 29 24 23
3 10 26 11
3 27 11 26
3 26 20 27
3 19 26 10
3 19 24 26
3 10 30  9
3 0 30  6
3 0  9 30
CELL_TYPES 42
5 5 5 5 5 5 5 5 5 5 5 5 5 5 5 5 5 5 5 5 5 5 5 5 5 5 5 5 5 5 5 5 5 5 5 5 5 5 5 5 5 5 
POINT_DATA 31
VECTORS displacement_ITER1 FLOAT
 1.195189e-01  -3.149815e-01  0 
 1.017232e-01  -3.860210e-01  0 
 1.329277e-01  -4.777089e-01  0 
 6.264730e-02  -3.149320e-01  0 
 8.160082e-02  -3.149538e-01  0 
 1.005633e-01  -3.149695e-01  0 
 1.538007e-01  -3.149994e-01  0 
 9.740950e-02  -3.807274e-01  0 
 9.450438e-02  -3.817359e-01  0 
 1.195301e-01  -3.492816e-01  0 
 1.195439e-01  -3.835867e-01  0 
 1.263803e-01  -4.279406e-01  0 
 9.275214e-02  -4.034845e-01  0 
 9.211380e-02  -4.257442e-01  0 
 1.078790e-01  -4.507408e-01  0 
 8.219001e-02  -2.892882e-01  0 
 1.013939e-01  -3.022375e-01  0 
 6.231885e-02  -3.022012e-01  0 
 8.531743e-02  -3.954624e-01  0 
 1.017444e-01  -3.642558e-01  0 
 9.370640e-02  -4.196959e-01  0 
 8.304028e-02  -3.826268e-01  0 
 7.128467e-02  -3.355711e-01  0 
 8.817605e-02  -3.477714e-01  0 
 8.503910e-02  -3.775618e-01  0 
 8.175258e-02  -3.969792e-01  0 
 9.746598e-02  -3.993268e-01  0 
 1.089359e-01  -4.346520e-01  0 
 1.066415e-01  -3.364296e-01  0 
 7.363183e-02  -3.728114e-01  0 
 1.462725e-01  -3.499769e-01  0 
VECTORS displacement_ITER2 FLOAT
 1.075334e-01  -2.481900e-01  0 
 7.887663e-02  -3.222614e-01  0 
 1.141793e-01  -3.634671e-01  0 
 7.790609e-02  -2.481133e-01  0 
 8.776818e-02  -2.481291e-01  0 
 9.764719e-02  -2.481555e-01  0 
 1.328195e-01  -2.482306e-01  0 
 7.640869e-02  -2.825356e-01  0 
 7.563121e-02  -3.029836e-01  0 
 1.075459e-01  -2.735124e-01  0 
 1.075638e-01  -2.988301e-01  0 
 1.128968e-01  -3.307573e-01  0 
 8.557714e-02  -3.293243e-01  0 
 9.197754e-02  -3.376594e-01  0 
 1.025032e-01  -3.494994e-01  0 
 8.807600e-02  -2.347628e-01  0 
 9.807374e-02  -2.415136e-01  0 
 7.773600e-02  -2.414861e-01  0 
 8.316772e-02  -3.136422e-01  0 
 9.819560e-02  -2.832988e-01  0 
 9.423854e-02  -3.274336e-01  0 
 7.965721e-02  -2.969125e-01  0 
 8.021063e-02  -2.605073e-01  0 
 9.006998e-02  -2.686933e-01  0 
 8.823608e-02  -2.913481e-01  0 
 8.545533e-02  -3.088213e-01  0 
 9.638733e-02  -3.099466e-01  0 
 1.029851e-01  -3.368982e-01  0 
 1.005697e-01  -2.631550e-01  0 
 7.768890e-02  -2.824802e-01  0 
 1.272793e-01  -2.740328e-01  0 
VECTORS displacement_ITER3 FLOAT
 7.841925e-02  -1.665296e-01  0 
 3.416274e-02  -2.440931e-01  0 
 7.488886e-02  -2.314986e-01  0 
 7.096068e-02  -1.664131e-01  0 
 7.341824e-02  -1.664216e-01  0 
 7.590483e-02  -1.664620e-01  0 
 9.631539e-02  -1.666031e-01  0 
 3.208094e-02  -1.687986e-01  0 
 3.426898e-02  -2.090162e-01  0 
 7.843231e-02  -1.844874e-01  0 
 7.845318e-02  -2.024242e-01  0 
 8.075493e-02  -2.194312e-01  0 
 5.778678e-02  -2.421503e-01  0 
 7.269832e-02  -2.372017e-01  0 
 7.844208e-02  -2.342654e-01  0 
 7.350066e-02  -1.630684e-01  0 
 7.599970e-02  -1.647718e-01  0 
 7.092016e-02  -1.647585e-01  0 
 6.006622e-02  -2.181148e-01  0 
 7.614775e-02  -1.892702e-01  0 
 7.644993e-02  -2.221403e-01  0 
 5.452227e-02  -1.966717e-01  0 
 6.779470e-02  -1.708540e-01  0 
 7.193609e-02  -1.754814e-01  0 
 7.174613e-02  -1.912070e-01  0 
 6.925748e-02  -2.068949e-01  0 
 7.735143e-02  -2.079339e-01  0 
 7.873247e-02  -2.253254e-01  0 
 7.622451e-02  -1.758245e-01  0 
 6.043034e-02  -1.770009e-01  0 
 9.241285e-02  -1.848659e-01  0 
VECTORS displacement_ITER4 FLOAT
 6.358490e-02  -1.370771e-01  0 
 2.829012e-02  -1.970912e-01  0 
 5.724229e-02  -1.917586e-01  0 
 5.426965e-02  -1.369496e-01  0 
 5.734304e-02  -1.369587e-01  0 
 6.044832e-02  -1.370006e-01  0 
 8.130984e-02  -1.371611e-01  0 
 2.256849e-02  -1.335165e-01  0 
 2.631595e-02  -1.673287e-01  0 
 6.359611e-02  -1.548709e-01  0 
 6.361469e-02  -1.726362e-01  0 
 6.427813e-02  -1.846746e-01  0 
 4.778503e-02  -2.001711e-01  0 
 6.023263e-02  -1.992401e-01  0 
 6.409270e-02  -1.967274e-01  0 
 5.744739e-02  -1.327685e-01  0 
 6.056895e-02  -1.348924e-01  0 
 5.421681e-02  -1.348845e-01  0 
 4.833687e-02  -1.792885e-01  0 
 6.083740e-02  -1.588731e-01  0 
 6.295397e-02  -1.865823e-01  0 
 4.261784e-02  -1.596656e-01  0 
 5.237301e-02  -1.400020e-01  0 
 5.625858e-02  -1.452096e-01  0 
 5.709509e-02  -1.583993e-01  0 
 5.584904e-02  -1.711108e-01  0 
 6.307320e-02  -1.753259e-01  0 
 6.383424e-02  -1.896293e-01  0 
 6.092608e-02  -1.460714e-01  0 
 4.679664e-02  -1.434469e-01  0 
 7.744742e-02  -1.552463e-01  0 
VECTORS displacement_ITER5 FLOAT
 5.141989e-02  -8.925645e-02  0 
 4.248262e-02  -1.078821e-01  0 
 4.770676e-02  -1.591811e-01  0 
 2.233140e-02  -8.913031e-02  0 
 3.199897e-02  -8.914521e-02  0 
 4.169659e-02  -8.918088e-02  0 
 7.350599e-02  -8.934271e-02  0 
 2.733397e-02  -9.485619e-02  0 
 3.315113e-02  -1.004859e-01  0 
 5.142720e-02  -1.114107e-01  0 
 5.144000e-02  -1.335323e-01  0 
 5.115996e-02  -1.464518e-01  0 
 4.254833e-02  -1.297354e-01  0 
 4.484382e-02  -1.473329e-01  0 
 4.905801e-02  -1.562420e-01  0 
 3.231234e-02  -7.602951e-02  0 
 4.210821e-02  -8.264900e-02  0 
 2.216023e-02  -8.264423e-02  0 
 3.576007e-02  -1.210553e-01  0 
 4.253197e-02  -1.169289e-01  0 
 4.490211e-02  -1.424637e-01  0 
 3.054025e-02  -1.083013e-01  0 
 2.652890e-02  -9.441897e-02  0 
 3.406904e-02  -1.028760e-01  0 
 3.556552e-02  -1.155111e-01  0 
 3.604484e-02  -1.235396e-01  0 
 4.465765e-02  -1.344460e-01  0 
 4.807224e-02  -1.496484e-01  0 
 4.430990e-02  -1.011670e-01  0 
 2.691932e-02  -1.022537e-01  0 
 6.868257e-02  -1.118706e-01  0 
VECTORS displacement_ITER6 FLOAT
 4.544881e-02  -6.791203e-02  0 
 4.474252e-02  -7.423389e-02  0 
 4.474628e-02  -1.382485e-01  0 
 2.168197e-02  -6.778026e-02  0 
 2.957399e-02  -6.779173e-02  0 
 3.749597e-02  -6.782867e-02  0 
 6.566179e-02  -6.800447e-02  0 
 3.109534e-02  -8.308709e-02  0 
 3.497541e-02  -7.541050e-02  0 
 4.545731e-02  -8.819623e-02  0 
 4.547224e-02  -1.084488e-01  0 
 4.567524e-02  -1.226827e-01  0 
 3.980068e-02  -1.009805e-01  0 
 3.916588e-02  -1.219900e-01  0 
 4.336378e-02  -1.326835e-01  0 
 2.983421e-02  -5.707541e-02  0 
 3.782799e-02  -6.248468e-02  0 
 2.154221e-02  -6.248606e-02  0 
 3.135565e-02  -9.619595e-02  0 
 3.761703e-02  -9.317697e-02  0 
 3.881874e-02  -1.181497e-01  0 
 2.715840e-02  -8.729322e-02  0 
 2.450015e-02  -7.339405e-02  0 
 3.077159e-02  -8.068644e-02  0 
 3.096174e-02  -9.291350e-02  0 
 3.074370e-02  -1.001615e-01  0 
 3.886546e-02  -1.100518e-01  0 
 4.245873e-02  -1.254384e-01  0 
 3.939611e-02  -7.874665e-02  0 
 2.420381e-02  -8.289936e-02  0 
 6.125353e-02  -8.861983e-02  0 
VECTORS displacement_ITER7 FLOAT
 3.520151e-02  -4.638196e-02  0 
 2.176838e-02  -6.333232e-02  0 
 3.616315e-02  -1.038788e-01  0 
 3.027969e-02  -4.624412e-02  0 
 3.189120e-02  -4.624677e-02  0 
 3.352923e-02  -4.628721e-02  0 
 4.911945e-02  -4.648698e-02  0 
 1.549707e-02  -6.268114e-02  0 
 1.634144e-02  -5.879110e-02  0 
 3.521134e-02  -6.038399e-02  0 
 3.523175e-02  -7.435690e-02  0 
 3.622148e-02  -8.900220e-02  0 
 2.629880e-02  -8.451262e-02  0 
 3.048389e-02  -9.707105e-02  0 
 3.479825e-02  -1.013093e-01  0 
 3.195690e-02  -4.403170e-02  0 
 3.358296e-02  -4.515767e-02  0 
 3.025211e-02  -4.516396e-02  0 
 2.072881e-02  -7.524011e-02  0 
 3.260295e-02  -6.312515e-02  0 
 3.198292e-02  -8.847838e-02  0 
 1.677662e-02  -6.570502e-02  0 
 2.725265e-02  -4.961342e-02  0 
 2.973538e-02  -5.289283e-02  0 
 2.788535e-02  -6.420237e-02  0 
 2.521851e-02  -7.350604e-02  0 
 3.288688e-02  -7.800352e-02  0 
 3.475695e-02  -9.255456e-02  0 
 3.322787e-02  -5.316212e-02  0 
 2.115360e-02  -5.595221e-02  0 
 4.610344e-02  -6.068399e-02  0 
VECTORS displacement_ITER8 FLOAT
 2.840818e-02  -3.819671e-02  0 
 9.317625e-03  -5.959399e-02  0 
 2.855674e-02  -8.712152e-02  0 
 3.016942e-02  -3.806726e-02  0 
 2.956298e-02  -3.806548e-02  0 
 2.897374e-02  -3.810247e-02  0 
 3.918279e-02  -3.830805e-02  0 
 7.598039e-03  -5.253874e-02  0 
 6.568260e-03  -5.189059e-02  0 
 2.841421e-02  -4.906803e-02  0 
 2.843378e-02  -5.991083e-02  0 
 2.887468e-02  -7.389138e-02  0 
 1.848831e-02  -7.737774e-02  0 
 2.459628e-02  -8.573803e-02  0 
 2.821833e-02  -8.683767e-02  0 
 2.955892e-02  -3.885781e-02  0 
 2.893056e-02  -3.847040e-02  0 
 3.018159e-02  -3.847564e-02  0 
 1.448561e-02  -6.578258e-02  0 
 2.779186e-02  -5.094197e-02  0 
 2.657242e-02  -7.552717e-02  0 
 1.080389e-02  -5.582468e-02  0 
 2.518487e-02  -4.037436e-02  0 
 2.632558e-02  -4.203028e-02  0 
 2.385708e-02  -5.252240e-02  0 
 2.054910e-02  -6.206211e-02  0 
 2.763476e-02  -6.466032e-02  0 
 2.846385e-02  -7.789294e-02  0 
 2.796517e-02  -4.311416e-02  0 
 1.722337e-02  -4.498635e-02  0 
 3.686164e-02  -4.930320e-02  0 
VECTORS displacement_ITER9 FLOAT
 2.656398e-02  -3.253378e-02  0 
 1.819115e-02  -4.200602e-02  0 
 2.446948e-02  -7.822021e-02  0 
 2.219838e-02  -3.243219e-02  0 
 2.365745e-02  -3.242998e-02  0 
 2.511388e-02  -3.245353e-02  0 
 3.709989e-02  -3.264508e-02  0 
 1.967054e-02  -4.558264e-02  0 
 1.642087e-02  -3.999611e-02  0 
 2.655874e-02  -4.318136e-02  0 
 2.656918e-02  -5.379963e-02  0 
 2.485810e-02  -6.633294e-02  0 
 2.226294e-02  -6.150311e-02  0 
 2.395913e-02  -7.323202e-02  0 
 2.511501e-02  -7.719305e-02  0 
 2.371506e-02  -3.043679e-02  0 
 2.516536e-02  -3.145756e-02  0 
 2.217348e-02  -3.145573e-02  0 
 1.726509e-02  -5.292570e-02  0 
 2.432322e-02  -4.576476e-02  0 
 2.378500e-02  -6.692575e-02  0 
 1.491163e-02  -4.542559e-02  0 
 1.985440e-02  -3.548854e-02  0 
 2.199532e-02  -3.814229e-02  0 
 2.019900e-02  -4.741822e-02  0 
 1.872238e-02  -5.368015e-02  0 
 2.391429e-02  -5.877664e-02  0 
 2.469256e-02  -6.981527e-02  0 
 2.497019e-02  -3.785284e-02  0 
 1.555567e-02  -4.143229e-02  0 
 3.483032e-02  -4.340362e-02  0 
VECTORS displacement_ITER10 FLOAT
 1.803460e-02  -2.517381e-02  0 
 1.610092e-02  -2.720102e-02  0 
 1.496709e-02  -7.282799e-02  0 
 5.405037e-03  -2.510193e-02  0 
 9.639742e-03  -2.509966e-02  0 
 1.385361e-02  -2.510980e-02  0 
 2.971344e-02  -2.528017e-02  0 
 1.884010e-02  -3.446724e-02  0 
 1.491118e-02  -2.829720e-02  0 
 1.802128e-02  -3.697028e-02  0 
 1.802433e-02  -4.873781e-02  0 
 1.499827e-02  -6.075783e-02  0 
 1.705557e-02  -4.801016e-02  0 
 1.587291e-02  -6.276810e-02  0 
 1.556840e-02  -6.994025e-02  0 
 9.781881e-03  -1.936067e-02  0 
 1.403138e-02  -2.227191e-02  0 
 5.330903e-03  -2.226388e-02  0 
 1.126098e-02  -4.103545e-02  0 
 1.359583e-02  -4.044201e-02  0 
 1.398475e-02  -5.965653e-02  0 
 9.614815e-03  -3.447076e-02  0 
 6.039824e-03  -2.887213e-02  0 
 9.674105e-03  -3.300830e-02  0 
 8.860039e-03  -4.165384e-02  0 
 9.083785e-03  -4.551880e-02  0 
 1.328689e-02  -5.352325e-02  0 
 1.452644e-02  -6.366955e-02  0 
 1.477268e-02  -3.155159e-02  0 
 5.122523e-03  -3.564500e-02  0 
 2.718940e-02  -3.720903e-02  0 
VECTORS displacement_ITER11 FLOAT
 1.765527e-02  -2.138958e-02  0 
 1.447882e-02  -2.487187e-02  0 
 1.542933e-02  -6.804172e-02  0 
 5.745776e-03  -2.133646e-02  0 
 9.750162e-03  -2.133096e-02  0 
 1.372392e-02  -2.133427e-02  0 
 2.901337e-02  -2.149252e-02  0 
 1.824054e-02  -2.449116e-02  0 
 1.469539e-02  -2.375400e-02  0 
 1.764097e-02  -3.286404e-02  0 
 1.764316e-02  -4.431065e-02  0 
 1.494111e-02  -5.591502e-02  0 
 1.774541e-02  -4.378603e-02  0 
 1.707917e-02  -5.713784e-02  0 
 1.611027e-02  -6.442577e-02  0 
 9.885019e-03  -1.590985e-02  0 
 1.389377e-02  -1.866074e-02  0 
 5.676332e-03  -1.865294e-02  0 
 1.269001e-02  -3.541707e-02  0 
 1.353939e-02  -3.613750e-02  0 
 1.472718e-02  -5.430841e-02  0 
 1.117788e-02  -2.808737e-02  0 
 6.471921e-03  -2.464401e-02  0 
 9.747020e-03  -2.873850e-02  0 
 9.417704e-03  -3.668434e-02  0 
 1.019634e-02  -3.998795e-02  0 
 1.357805e-02  -4.859142e-02  0 
 1.480945e-02  -5.846624e-02  0 
 1.458115e-02  -2.754687e-02  0 
 5.878488e-03  -2.989993e-02  0 
 2.655823e-02  -3.309541e-02  0 
VECTORS displacement_ITER12 FLOAT
 1.274613e-02  -1.736573e-02  0 
 3.204643e-03  -2.730722e-02  0 
 1.289155e-02  -6.335908e-02  0 
 4.524791e-03  -1.731977e-02  0 
 7.299556e-03  -1.731045e-02  0 
 1.004179e-02  -1.731260e-02  0 
 2.362554e-02  -1.746824e-02  0 
 7.164171e-03  -1.381341e-02  0 
 4.944459e-03  -2.138188e-02  0 
 1.273557e-02  -2.835668e-02  0 
 1.274136e-02  -3.931957e-02  0 
 1.161354e-02  -5.072417e-02  0 
 1.157683e-02  -4.332788e-02  0 
 1.347428e-02  -5.350793e-02  0 
 1.288533e-02  -5.956694e-02  0 
 7.397487e-03  -1.355563e-02  0 
 1.015797e-02  -1.546446e-02  0 
 4.478033e-03  -1.546088e-02  0 
 7.831762e-03  -3.198471e-02  0 
 9.802327e-03  -3.100535e-02  0 
 1.160382e-02  -4.919882e-02  0 
 5.986868e-03  -2.287896e-02  0 
 4.168690e-03  -1.977449e-02  0 
 6.563670e-03  -2.322634e-02  0 
 6.494216e-03  -3.068749e-02  0 
 7.023357e-03  -3.470553e-02  0 
 1.043023e-02  -4.272357e-02  0 
 1.172703e-02  -5.310358e-02  0 
 1.044661e-02  -2.297674e-02  0 
 2.324108e-03  -2.256884e-02  0 
 2.127536e-02  -2.858152e-02  0 
VECTORS displacement_ITER13 FLOAT
 7.292875e-03  -1.593586e-02  0 
 -3.357873e-03  -2.525763e-02  0 
 1.020586e-02  -6.135122e-02  0 
 1.963335e-03  -1.588801e-02  0 
 3.766386e-03  -1.587622e-02  0 
 5.541219e-03  -1.588076e-02  0 
 1.819088e-02  -1.604087e-02  0 
 -1.843951e-03  -7.913326e-03  0 
 -1.680837e-03  -1.845359e-02  0 
 7.288065e-03  -2.693938e-02  0 
 7.298916e-03  -3.791137e-02  0 
 8.165000e-03  -4.843685e-02  0 
 6.535045e-03  -4.154235e-02  0 
 9.310967e-03  -5.132858e-02  0 
 9.257637e-03  -5.732261e-02  0 
 3.836227e-03  -1.343441e-02  0 
 5.613796e-03  -1.467749e-02  0 
 1.934306e-03  -1.468059e-02  0 
 2.887948e-03  -2.954998e-02  0 
 5.189482e-03  -2.894512e-02  0 
 7.730652e-03  -4.642603e-02  0 
 7.825211e-04  -2.013001e-02  0 
 8.775517e-04  -1.790088e-02  0 
 2.444160e-03  -2.080081e-02  0 
 2.636065e-03  -2.751444e-02  0 
 2.961205e-03  -3.168729e-02  0 
 6.592632e-03  -3.957075e-02  0 
 8.266367e-03  -5.044346e-02  0 
 5.542210e-03  -2.126906e-02  0 
 -1.699702e-03  -1.874483e-02  0 
 1.583676e-02  -2.716974e-02  0 
VECTORS displacement_ITER14 FLOAT
 8.394300e-03  -1.356577e-02  0 
 1.465398e-03  -1.947031e-02  0 
 1.067621e-02  -5.953289e-02  0 
 2.849868e-03  -1.351322e-02  0 
 4.721358e-03  -1.350204e-02  0 
 6.566600e-03  -1.350854e-02  0 
 2.001034e-02  -1.367021e-02  0 
 1.870762e-03  -9.947091e-03  0 
 2.366582e-03  -1.588920e-02  0 
 8.390906e-03  -2.528451e-02  0 
 8.402256e-03  -3.697009e-02  0 
 9.201492e-03  -4.724603e-02  0 
 8.602588e-03  -3.780350e-02  0 
 1.013399e-02  -4.939887e-02  0 
 1.018452e-02  -5.592752e-02  0 
 4.793290e-03  -1.096561e-02  0 
 6.641422e-03  -1.225582e-02  0 
 2.819555e-03  -1.225899e-02  0 
 4.137735e-03  -2.754853e-02  0 
 6.069134e-03  -2.749204e-02  0 
 8.487810e-03  -4.502087e-02  0 
 2.285922e-03  -1.949724e-02  0 
 1.908647e-03  -1.638341e-02  0 
 3.451206e-03  -1.931702e-02  0 
 3.418780e-03  -2.634457e-02  0 
 3.673405e-03  -3.039217e-02  0 
 7.441437e-03  -3.834268e-02  0 
 9.193822e-03  -4.923355e-02  0 
 6.543323e-03  -1.934396e-02  0 
 -3.374747e-04  -1.857464e-02  0 
 1.749755e-02  -2.553035e-02  0 
VECTORS displacement_ITER15 FLOAT
 6.990957e-03  -9.687025e-03  0 
 5.677448e-03  -1.119795e-02  0 
 6.600552e-03  -5.292233e-02  0 
 3.646486e-03  -9.623365e-03  0 
 4.780819e-03  -9.613757e-03  0 
 5.891390e-03  -9.624378e-03  0 
 1.885504e-02  -9.790080e-03  0 
 5.208731e-03  -1.407216e-02  0 
 5.673949e-03  -1.228373e-02  0 
 6.988571e-03  -2.165139e-02  0 
 6.999769e-03  -3.358097e-02  0 
 6.968081e-03  -4.312233e-02  0 
 8.888638e-03  -3.192044e-02  0 
 8.670524e-03  -4.526783e-02  0 
 8.420782e-03  -5.134069e-02  0 
 4.828626e-03  -8.071960e-03  0 
 5.932208e-03  -8.861644e-03  0 
 3.628580e-03  -8.862270e-03  0 
 3.481682e-03  -2.425370e-02  0 
 5.009858e-03  -2.397584e-02  0 
 7.019627e-03  -4.133378e-02  0 
 2.125106e-03  -1.853212e-02  0 
 2.293693e-03  -1.359818e-02  0 
 3.221103e-03  -1.617109e-02  0 
 2.566976e-03  -2.361910e-02  0 
 2.575671e-03  -2.756494e-02  0 
 6.089708e-03  -3.502525e-02  0 
 7.373402e-03  -4.529765e-02  0 
 5.543913e-03  -1.565507e-02  0 
 7.205865e-05  -1.783209e-02  0 
 1.628683e-02  -2.190289e-02  0 
VECTORS displacement_ITER16 FLOAT
 5.897948e-03  -8.562076e-03  0 
 2.910475e-03  -1.302154e-02  0 
 4.123982e-03  -4.747347e-02  0 
 6.287393e-03  -8.482445e-03  0 
 6.171453e-03  -8.474653e-03  0 
 6.037245e-03  -8.490832e-03  0 
 1.655707e-02  -8.666839e-03  0 
 3.201411e-03  -1.397408e-02  0 
 3.448531e-03  -1.280431e-02  0 
 5.895414e-03  -1.932486e-02  0 
 5.907233e-03  -3.005257e-02  0 
 5.591623e-03  -3.932137e-02  0 
 7.372909e-03  -3.220618e-02  0 
 7.920011e-03  -4.360712e-02  0 
 7.471868e-03  -4.778812e-02  0 
 6.179649e-03  -8.620726e-03  0 
 6.021046e-03  -8.560954e-03  0 
 6.290473e-03  -8.560290e-03  0 
 2.608557e-03  -2.389524e-02  0 
 4.988108e-03  -2.133610e-02  0 
 6.663422e-03  -3.868818e-02  0 
 1.310775e-03  -1.815468e-02  0 
 3.962351e-03  -1.218644e-02  0 
 4.051864e-03  -1.403245e-02  0 
 3.049849e-03  -2.139940e-02  0 
 2.672610e-03  -2.584638e-02  0 
 5.846470e-03  -3.206929e-02  0 
 6.533075e-03  -4.186725e-02  0 
 5.284878e-03  -1.381417e-02  0 
 8.222288e-04  -1.608965e-02  0 
 1.425532e-02  -1.955246e-02  0 
VECTORS displacement_ITER17 FLOAT
 5.474314e-03  -9.842261e-03  0 
 7.145761e-03  -8.747040e-03  0 
 5.710284e-03  -5.277740e-02  0 
 1.048634e-03  -9.750889e-03  0 
 2.531638e-03  -9.748467e-03  0 
 4.003981e-03  -9.767238e-03  0 
 1.645138e-02  -9.947619e-03  0 
 6.166100e-03  -1.252943e-02  0 
 6.796869e-03  -1.043710e-02  0 
 5.470300e-03  -2.092568e-02  0 
 5.481545e-03  -3.197365e-02  0 
 5.758950e-03  -4.214518e-02  0 
 8.892648e-03  -2.935063e-02  0 
 7.545835e-03  -4.316282e-02  0 
 6.972424e-03  -5.023186e-02  0 
 2.589760e-03  -7.724837e-03  0 
 4.057189e-03  -8.758490e-03  0 
 1.021251e-03  -8.757814e-03  0 
 3.375965e-03  -2.243870e-02  0 
 3.342747e-03  -2.332821e-02  0 
 5.398748e-03  -3.996401e-02  0 
 2.238401e-03  -1.705499e-02  0 
 4.921510e-04  -1.343758e-02  0 
 1.424827e-03  -1.618196e-02  0 
 1.045105e-03  -2.304292e-02  0 
 1.477362e-03  -2.640773e-02  0 
 4.246131e-03  -3.390475e-02  0 
 5.795156e-03  -4.429696e-02  0 
 3.901294e-03  -1.548966e-02  0 
 -8.267635e-04  -1.744433e-02  0 
 1.408006e-02  -2.115870e-02  0 
VECTORS displacement_ITER18 FLOAT
 4.419901e-03  -9.132195e-03  0 
 -1.474749e-04  -1.615881e-02  0 
 6.169313e-03  -5.032676e-02  0 
 5.810032e-03  -9.030676e-03  0 
 5.347020e-03  -9.028233e-03  0 
 4.880162e-03  -9.051648e-03  0 
 1.380715e-02  -9.238103e-03  0 
 9.547614e-04  -8.157507e-03  0 
 1.089502e-03  -1.270136e-02  0 
 4.418980e-03  -1.862369e-02  0 
 4.433884e-03  -2.808176e-02  0 
 5.616415e-03  -3.902485e-02  0 
 6.549027e-03  -3.283349e-02  0 
 7.666702e-03  -4.250767e-02  0 
 7.196515e-03  -4.766891e-02  0 
 5.345119e-03  -9.633696e-03  0 
 4.846385e-03  -9.341734e-03  0 
 5.816373e-03  -9.343787e-03  0 
 2.670136e-03  -2.299639e-02  0 
 4.022902e-03  -2.037876e-02  0 
 6.027512e-03  -3.752240e-02  0 
 1.346871e-03  -1.589220e-02  0 
 3.524772e-03  -1.164860e-02  0 
 3.238750e-03  -1.345493e-02  0 
 2.653035e-03  -2.012522e-02  0 
 2.627580e-03  -2.449151e-02  0 
 4.892104e-03  -3.048427e-02  0 
 6.109431e-03  -4.126938e-02  0 
 4.119244e-03  -1.368209e-02  0 
 4.542571e-04  -1.384975e-02  0 
 1.178680e-02  -1.882712e-02  0 
VECTORS displacement_ITER19 FLOAT
 3.042355e-03  -8.365298e-03  0 
 3.141974e-03  -1.142062e-02  0 
 4.559145e-03  -5.135757e-02  0 
 1.938706e-03  -8.260741e-03  0 
 2.301955e-03  -8.261008e-03  0 
 2.666116e-03  -8.285473e-03  0 
 1.336889e-02  -8.470763e-03  0 
 3.932257e-03  -8.925181e-03  0 
 3.629934e-03  -1.049336e-02  0 
 3.042279e-03  -1.879330e-02  0 
 3.057200e-03  -2.918655e-02  0 
 3.875711e-03  -4.002127e-02  0 
 7.060648e-03  -2.955686e-02  0 
 6.540147e-03  -4.120562e-02  0 
 5.672403e-03  -4.782243e-02  0 
 2.326120e-03  -7.743941e-03  0 
 2.668483e-03  -8.016510e-03  0 
 1.929320e-03  -8.019850e-03  0 
 2.466850e-03  -2.126439e-02  0 
 1.896922e-03  -2.092791e-02  0 
 4.284025e-03  -3.752617e-02  0 
 1.409581e-03  -1.493375e-02  0 
 6.609531e-04  -1.136572e-02  0 
 7.478923e-04  -1.386872e-02  0 
 4.407654e-04  -2.057236e-02  0 
 1.013795e-03  -2.418626e-02  0 
 2.851951e-03  -3.124965e-02  0 
 4.302523e-03  -4.189243e-02  0 
 2.193403e-03  -1.356506e-02  0 
 -1.094581e-03  -1.455992e-02  0 
 1.114101e-02  -1.901604e-02  0 
VECTORS displacement_ITER20 FLOAT
 1.981213e-03  -7.854681e-03  0 
 2.188022e-03  -1.097022e-02  0 
 1.787439e-03  -4.845168e-02  0 
 2.025709e-03  -7.749050e-03  0 
 2.002889e-03  -7.749310e-03  0 
 1.983364e-03  -7.774897e-03  0 
 1.241054e-02  -7.960639e-03  0 
 2.884537e-03  -9.387658e-03  0 
 2.471522e-03  -1.023969e-02  0 
 1.982158e-03  -1.838387e-02  0 
 1.997497e-03  -2.887708e-02  0 
 2.034061e-03  -3.894329e-02  0 
 6.098802e-03  -2.922039e-02  0 
 5.738733e-03  -4.062219e-02  0 
 4.555396e-03  -4.627246e-02  0 
 2.015449e-03  -7.752746e-03  0 
 1.968521e-03  -7.762031e-03  0 
 2.022975e-03  -7.766924e-03  0 
 1.512091e-03  -2.103513e-02  0 
 1.092081e-03  -2.042656e-02  0 
 3.594188e-03  -3.676192e-02  0 
 4.133565e-04  -1.480578e-02  0 
 4.548198e-04  -1.085948e-02  0 
 2.208345e-04  -1.326431e-02  0 
 -1.601481e-04  -2.001463e-02  0 
 4.051876e-04  -2.364218e-02  0 
 2.095508e-03  -3.079906e-02  0 
 3.093945e-03  -4.079354e-02  0 
 1.339520e-03  -1.304723e-02  0 
 -1.517601e-03  -1.401741e-02  0 
 1.015974e-02  -1.860955e-02  0 
VECTORS displacement_ITER21 FLOAT
 2.469293e-03  -7.730420e-03  0 
 1.790449e-03  -1.094087e-02  0 
 1.352050e-03  -4.822305e-02  0 
 2.838265e-03  -7.627999e-03  0 
 2.705649e-03  -7.626771e-03  0 
 2.577150e-03  -7.651868e-03  0 
 1.298436e-02  -7.835441e-03  0 
 1.315260e-03  -9.309166e-03  0 
 1.526600e-03  -1.009314e-02  0 
 2.470742e-03  -1.834363e-02  0 
 2.486307e-03  -2.892114e-02  0 
 1.992705e-03  -3.911189e-02  0 
 5.838987e-03  -2.969239e-02  0 
 5.804600e-03  -4.120537e-02  0 
 4.716874e-03  -4.642776e-02  0 
 2.715979e-03  -7.778114e-03  0 
 2.557710e-03  -7.711421e-03  0 
 2.838050e-03  -7.719466e-03  0 
 1.135987e-03  -2.151428e-02  0 
 1.563308e-03  -2.035141e-02  0 
 3.855491e-03  -3.709942e-02  0 
 -2.152732e-04  -1.512470e-02  0 
 9.373617e-04  -1.084507e-02  0 
 6.848368e-04  -1.304340e-02  0 
 1.121578e-04  -2.004025e-02  0 
 4.862971e-04  -2.388573e-02  0 
 2.432123e-03  -3.108368e-02  0 
 3.229895e-03  -4.103705e-02  0 
 1.847804e-03  -1.290509e-02  0 
 -1.566376e-03  -1.383440e-02  0 
 1.071416e-02  -1.857133e-02  0 
VECTORS displacement_ITER22 FLOAT
 2.148221e-03  -7.441291e-03  0 
 2.543915e-03  -8.762497e-03  0 
 1.389861e-03  -4.919094e-02  0 
 1.758661e-03  -7.341454e-03  0 
 1.877359e-03  -7.339217e-03  0 
 2.000854e-03  -7.363568e-03  0 
 1.263311e-02  -7.545577e-03  0 
 1.569344e-03  -9.454554e-03  0 
 1.808199e-03  -8.899713e-03  0 
 2.149452e-03  -1.802423e-02  0 
 2.165128e-03  -2.857202e-02  0 
 1.584175e-03  -3.912950e-02  0 
 5.736043e-03  -2.837385e-02  0 
 5.264966e-03  -4.067104e-02  0 
 4.201405e-03  -4.647582e-02  0 
 1.896591e-03  -7.149615e-03  0 
 1.992562e-03  -7.253173e-03  0 
 1.754167e-03  -7.264376e-03  0 
 7.083358e-04  -2.075922e-02  0 
 9.929851e-04  -2.008577e-02  0 
 3.188058e-03  -3.686482e-02  0 
 -6.349458e-04  -1.463305e-02  0 
 1.647284e-04  -1.057691e-02  0 
 -2.886221e-05  -1.286704e-02  0 
 -6.043527e-04  -1.980816e-02  0 
 -1.728696e-04  -2.348990e-02  0 
 1.744129e-03  -3.091560e-02  0 
 2.635836e-03  -4.103132e-02  0 
 1.358762e-03  -1.262922e-02  0 
 -2.121862e-03  -1.363439e-02  0 
 1.036932e-02  -1.825113e-02  0 
VECTORS displacement_ITER23 FLOAT
 2.632389e-03  -7.060424e-03  0 
 1.952899e-03  -9.908949e-03  0 
 2.428655e-03  -4.887519e-02  0 
 2.621854e-03  -6.962360e-03  0 
 2.614489e-03  -6.958944e-03  0 
 2.611375e-03  -6.982490e-03  0 
 1.260310e-02  -7.164265e-03  0 
 1.691697e-03  -8.188817e-03  0 
 1.611230e-03  -8.926659e-03  0 
 2.632730e-03  -1.713114e-02  0 
 2.648396e-03  -2.716790e-02  0 
 2.225526e-03  -3.795238e-02  0 
 5.974618e-03  -2.852707e-02  0 
 5.826741e-03  -4.000228e-02  0 
 4.715486e-03  -4.565157e-02  0 
 2.630572e-03  -6.939860e-03  0 
 2.597554e-03  -6.956832e-03  0 
 2.619642e-03  -6.970300e-03  0 
 1.306907e-03  -2.035663e-02  0 
 1.655479e-03  -1.913942e-02  0 
 3.757938e-03  -3.596482e-02  0 
 -2.905748e-05  -1.388705e-02  0 
 9.876998e-04  -9.942904e-03  0 
 6.992313e-04  -1.213270e-02  0 
 1.567566e-04  -1.893493e-02  0 
 5.730124e-04  -2.272895e-02  0 
 2.321315e-03  -2.982085e-02  0 
 3.165575e-03  -4.001520e-02  0 
 1.965814e-03  -1.198726e-02  0 
 -1.374025e-03  -1.264853e-02  0 
 1.045272e-02  -1.734709e-02  0 
VECTORS displacement_ITER24 FLOAT
 2.837452e-03  -7.026993e-03  0 
 2.344540e-03  -9.642274e-03  0 
 2.918600e-03  -4.936111e-02  0 
 1.609498e-03  -6.928858e-03  0 
 2.007477e-03  -6.925507e-03  0 
 2.409984e-03  -6.948733e-03  0 
 1.303282e-02  -7.129523e-03  0 
 2.382427e-03  -7.371318e-03  0 
 2.118317e-03  -8.494168e-03  0 
 2.837045e-03  -1.732261e-02  0 
 2.852161e-03  -2.758454e-02  0 
 2.558853e-03  -3.816565e-02  0 
 6.381581e-03  -2.815407e-02  0 
 6.155368e-03  -3.977332e-02  0 
 4.978918e-03  -4.577796e-02  0 
 2.036793e-03  -6.357290e-03  0 
 2.413938e-03  -6.650460e-03  0 
 1.599892e-03  -6.665224e-03  0 
 1.716490e-03  -1.989247e-02  0 
 1.588875e-03  -1.940313e-02  0 
 3.946601e-03  -3.596982e-02  0 
 3.887599e-04  -1.328951e-02  0 
 4.561086e-04  -9.796994e-03  0 
 3.596844e-04  -1.229588e-02  0 
 7.847107e-05  -1.892827e-02  0 
 7.174155e-04  -2.252454e-02  0 
 2.412931e-03  -2.998027e-02  0 
 3.376146e-03  -4.018346e-02  0 
 1.928521e-03  -1.211066e-02  0 
 -1.415505e-03  -1.236187e-02  0 
 1.083248e-02  -1.754247e-02  0 
VECTORS displacement_ITER25 FLOAT
 2.428110e-03  -7.036716e-03  0 
 9.128382e-04  -1.014378e-02  0 
 2.399115e-03  -4.767197e-02  0 
 1.708476e-03  -6.937186e-03  0 
 1.934279e-03  -6.932851e-03  0 
 2.166384e-03  -6.956840e-03  0 
 1.262591e-02  -7.139479e-03  0 
 1.171559e-03  -7.028645e-03  0 
 9.483367e-04  -8.570556e-03  0 
 2.427833e-03  -1.733502e-02  0 
 2.443232e-03  -2.759891e-02  0 
 2.417177e-03  -3.739967e-02  0 
 5.684144e-03  -2.846301e-02  0 
 5.952060e-03  -3.964876e-02  0 
 4.869114e-03  -4.505176e-02  0 
 1.959460e-03  -6.596058e-03  0 
 2.162351e-03  -6.771284e-03  0 
 1.701981e-03  -6.789325e-03  0 
 1.155556e-03  -1.982138e-02  0 
 1.382867e-03  -1.924132e-02  0 
 3.962632e-03  -3.547938e-02  0 
 -2.360622e-04  -1.310121e-02  0 
 4.375648e-04  -9.567103e-03  0 
 2.102978e-04  -1.201686e-02  0 
 4.257861e-05  -1.841037e-02  0 
 5.941551e-04  -2.209228e-02  0 
 2.481536e-03  -2.945474e-02  0 
 3.381770e-03  -3.944879e-02  0 
 1.625574e-03  -1.205409e-02  0 
 -1.550869e-03  -1.166682e-02  0 
 1.042488e-02  -1.755531e-02  0 
VECTORS displacement_ITER26 FLOAT
 2.922307e-03  -6.388519e-03  0 
 2.091246e-03  -8.439864e-03  0 
 2.922161e-03  -4.755877e-02  0 
 2.263628e-03  -6.292276e-03  0 
 2.468647e-03  -6.286357e-03  0 
 2.679658e-03  -6.309556e-03  0 
 1.338638e-02  -6.489292e-03  0 
 2.126740e-03  -8.498425e-03  0 
 1.980478e-03  -8.183217e-03  0 
 2.922316e-03  -1.695097e-02  0 
 2.937739e-03  -2.747971e-02  0 
 3.117398e-03  -3.738856e-02  0 
 6.107668e-03  -2.769555e-02  0 
 6.132004e-03  -3.956244e-02  0 
 5.330471e-03  -4.514445e-02  0 
 2.494096e-03  -5.977113e-03  0 
 2.674875e-03  -6.137387e-03  0 
 2.258002e-03  -6.158066e-03  0 
 1.252760e-03  -1.958603e-02  0 
 1.821437e-03  -1.889536e-02  0 
 4.256021e-03  -3.539703e-02  0 
 -5.339117e-05  -1.338852e-02  0 
 8.938994e-04  -9.219354e-03  0 
 6.918943e-04  -1.162103e-02  0 
 3.599057e-04  -1.819121e-02  0 
 7.260144e-04  -2.198604e-02  0 
 2.903212e-03  -2.923053e-02  0 
 3.927492e-03  -3.945319e-02  0 
 2.103235e-03  -1.154647e-02  0 
 -1.165873e-03  -1.183394e-02  0 
 1.112580e-02  -1.717660e-02  0 
VECTORS displacement_ITER27 FLOAT
 2.764456e-03  -6.154609e-03  0 
 1.665894e-03  -7.403115e-03  0 
 3.051434e-03  -4.712113e-02  0 
 2.066373e-03  -6.059228e-03  0 
 2.283723e-03  -6.052180e-03  0 
 2.507352e-03  -6.075379e-03  0 
 1.311211e-02  -6.255438e-03  0 
 1.415396e-03  -8.123413e-03  0 
 1.524506e-03  -7.515316e-03  0 
 2.764324e-03  -1.660099e-02  0 
 2.779929e-03  -2.701388e-02  0 
 3.204620e-03  -3.699809e-02  0 
 5.732989e-03  -2.711435e-02  0 
 5.837471e-03  -3.920311e-02  0 
 5.240343e-03  -4.483980e-02  0 
 2.310001e-03  -5.725820e-03  0 
 2.503023e-03  -5.894238e-03  0 
 2.060866e-03  -5.916392e-03  0 
 7.622953e-04  -1.906782e-02  0 
 1.658874e-03  -1.846771e-02  0 
 4.060334e-03  -3.494697e-02  0 
 -5.655988e-04  -1.298779e-02  0 
 6.929818e-04  -8.915669e-03  0 
 4.821595e-04  -1.123011e-02  0 
 1.314059e-04  -1.767323e-02  0 
 3.918744e-04  -2.147067e-02  0 
 2.772826e-03  -2.868040e-02  0 
 3.922974e-03  -3.902825e-02  0 