# vtk DataFile Version 3.1
this is an vtk file created by FEMAC
ASCII
DATASET UNSTRUCTURED_GRID
POINTS 30 FLOAT
5.000000 3.000000 0.000000
5.000000 4.000000 0.000000
4.500000 3.000000 0.000000
4.750000 3.000000 0.000000
4.750000 4.000000 0.000000
5.000000 3.250000 0.000000
5.000000 3.500000 0.000000
5.000000 3.750000 0.000000
5.000000 4.250000 0.000000
5.250000 4.000000 0.000000
5.500000 4.000000 0.000000
4.761003 2.832250 0.000000
4.675053 3.181152 0.000000
4.828465 3.345163 0.000000
4.825859 3.583418 0.000000
4.649535 3.397124 0.000000
4.588195 3.700568 0.000000
4.832811 3.806797 0.000000
4.850704 3.155263 0.000000
4.832172 4.245757 0.000000
5.331392 3.813653 0.000000
5.195000 3.255000 0.000000
5.500000 3.775000 0.000000
5.194695 3.661595 0.000000
5.323754 3.413341 0.000000
5.404183 3.616917 0.000000
5.155217 3.845050 0.000000
5.171305 4.165198 0.000000
5.161848 4.344773 0.000000
5.384851 4.278430 0.000000
CELLS 42 168 
3 3 11  0
3 2 11  3
3 12  2  3
3 13  5  6
3 7 14  6
3 13 15 12
3 4 17  1
3 17  7  1
3 18  3  0
3 5 18  0
3 3 18 12
3 17 14  7
3 13 18  5
3 13 12 18
3 13  6 14
3 13 14 15
3 16 15 14
3 17  4 16
3 16 14 17
3 19  4  1
3 8 19  1
3 20 10  9
3 21  6  5
3 20 22 10
3 20 25 22
3 23  7  6
3 23 25 20
3 24  6 21
3 23  6 24
3 23 24 25
3 0 21  5
3 7 26  1
3 9 26 20
3 26  9  1
3 23 26  7
3 23 20 26
3 27 28  8
3 1 27  8
3 1  9 27
3 29  9 10
3 27  9 29
3 29 28 27
CELL_TYPES 42
5 5 5 5 5 5 5 5 5 5 5 5 5 5 5 5 5 5 5 5 5 5 5 5 5 5 5 5 5 5 5 5 5 5 5 5 5 5 5 5 5 5 
POINT_DATA 30
VECTORS displacement_ITER1 FLOAT
 1.463052e-03  -3.252746e-01  0 
 6.557818e-02  -3.252982e-01  0 
 1.466566e-03  -2.675195e-01  0 
 1.467982e-03  -2.963994e-01  0 
 6.555782e-02  -3.128135e-01  0 
 1.749950e-02  -3.252845e-01  0 
 3.353442e-02  -3.252935e-01  0 
 4.956838e-02  -3.253047e-01  0 
 7.800966e-02  -3.252945e-01  0 
 6.560021e-02  -3.413511e-01  0 
 6.561205e-02  -3.574088e-01  0 
 -1.789676e-02  -2.976709e-01  0 
 1.483651e-02  -2.887332e-01  0 
 2.407994e-02  -3.061782e-01  0 
 3.788042e-02  -3.073820e-01  0 
 2.641614e-02  -2.887242e-01  0 
 4.442544e-02  -2.791773e-01  0 
 5.475403e-02  -3.114376e-01  0 
 1.220529e-02  -3.086830e-01  0 
 7.780130e-02  -3.169373e-01  0 
 5.364704e-02  -3.465663e-01  0 
 1.782274e-02  -3.378025e-01  0 
 5.117297e-02  -3.573905e-01  0 
 4.389929e-02  -3.377916e-01  0 
 2.797947e-02  -3.460699e-01  0 
 4.103505e-02  -3.512343e-01  0 
 5.565611e-02  -3.352558e-01  0 
 7.287172e-02  -3.383397e-01  0 
 8.119858e-02  -3.400475e-01  0 
 7.803204e-02  -3.542138e-01  0 
VECTORS displacement_ITER2 FLOAT
 1.456320e-02  -1.529495e-01  0 
 4.394677e-02  -1.529566e-01  0 
 1.457196e-02  -1.207099e-01  0 
 1.457200e-02  -1.368410e-01  0 
 4.391507e-02  -1.494391e-01  0 
 2.191945e-02  -1.529509e-01  0 
 2.927970e-02  -1.529519e-01  0 
 3.663731e-02  -1.529615e-01  0 
 4.739790e-02  -1.529535e-01  0 
 4.399533e-02  -1.603351e-01  0 
 4.403162e-02  -1.677240e-01  0 
 3.767222e-03  -1.375564e-01  0 
 2.026385e-02  -1.321733e-01  0 
 2.456863e-02  -1.419978e-01  0 
 3.059143e-02  -1.429396e-01  0 
 2.503753e-02  -1.320466e-01  0 
 3.262231e-02  -1.262205e-01  0 
 3.926682e-02  -1.462563e-01  0 
 1.928741e-02  -1.434175e-01  0 
 4.733807e-02  -1.506149e-01  0 
 3.850807e-02  -1.627148e-01  0 
 2.206667e-02  -1.586975e-01  0 
 3.737681e-02  -1.676967e-01  0 
 3.403648e-02  -1.586873e-01  0 
 2.672843e-02  -1.624934e-01  0 
 3.272128e-02  -1.648630e-01  0 
 3.942161e-02  -1.575173e-01  0 
 4.571683e-02  -1.604789e-01  0 
 4.889993e-02  -1.638576e-01  0 
 4.821541e-02  -1.701598e-01  0 
VECTORS displacement_ITER3 FLOAT
 -2.801588e-03  -6.168689e-02  0 
 1.404547e-02  -6.148268e-02  0 
 -2.711382e-03  -5.083173e-02  0 
 -2.743096e-03  -5.628344e-02  0 
 1.401203e-02  -5.005667e-02  0 
 1.246079e-03  -6.165847e-02  0 
 5.420525e-03  -6.158754e-02  0 
 9.727814e-03  -6.153113e-02  0 
 2.537750e-02  -6.144117e-02  0 
 1.410633e-02  -6.590598e-02  0 
 1.416671e-02  -7.034012e-02  0 
 -6.366047e-03  -5.656005e-02  0 
 -2.038149e-04  -5.357359e-02  0 
 2.287990e-03  -5.664429e-02  0 
 5.780972e-03  -5.585309e-02  0 
 2.761176e-03  -5.185229e-02  0 
 5.937278e-03  -4.909827e-02  0 
 9.241079e-03  -5.586013e-02  0 
 -5.843682e-04  -5.785154e-02  0 
 2.519982e-02  -5.381620e-02  0 
 1.083410e-02  -6.729713e-02  0 
 1.301545e-03  -6.488333e-02  0 
 1.019108e-02  -7.025097e-02  0 
 8.186283e-03  -6.490795e-02  0 
 3.964363e-03  -6.708619e-02  0 
 7.439495e-03  -6.851774e-02  0 
 1.136622e-02  -6.420842e-02  0 
 1.991837e-02  -6.825724e-02  0 
 2.862610e-02  -7.109991e-02  0 
 2.552210e-02  -8.028145e-02  0 
VECTORS displacement_ITER4 FLOAT
 -4.266003e-03  -2.152034e-02  0 
 4.545201e-04  -2.136995e-02  0 
 -4.218927e-03  -1.835421e-02  0 
 -4.239432e-03  -1.993441e-02  0 
 4.046592e-04  -1.848553e-02  0 
 -3.191176e-03  -2.152052e-02  0 
 -2.033016e-03  -2.148093e-02  0 
 -7.870558e-04  -2.143220e-02  0 
 3.197703e-03  -2.130370e-02  0 
 5.218955e-04  -2.274067e-02  0 
 5.844229e-04  -2.412333e-02  0 
 -5.297388e-03  -2.001888e-02  0 
 -3.445385e-03  -1.943455e-02  0 
 -2.816414e-03  -2.021743e-02  0 
 -1.839059e-03  -1.994793e-02  0 
 -2.615114e-03  -1.905484e-02  0 
 -1.350657e-03  -1.763160e-02  0 
 -6.934810e-04  -1.977742e-02  0 
 -3.597140e-03  -2.051506e-02  0 
 3.179049e-03  -1.945313e-02  0 
 -4.669969e-04  -2.313706e-02  0 
 -3.182407e-03  -2.240810e-02  0 
 -6.365556e-04  -2.403119e-02  0 
 -1.245862e-03  -2.242332e-02  0 
 -2.440428e-03  -2.303886e-02  0 
 -1.451350e-03  -2.347567e-02  0 
 -3.204522e-04  -2.220130e-02  0 
 2.263643e-03  -2.502544e-02  0 
 8.325957e-03  -2.854299e-02  0 
 6.906540e-03  -3.429909e-02  0 
VECTORS displacement_ITER5 FLOAT
 -1.086385e-03  -8.893194e-03  0 
 3.271348e-03  -8.720537e-03  0 
 -1.057020e-03  -1.034512e-02  0 
 -1.075325e-03  -9.587062e-03  0 
 3.221985e-03  -9.481162e-03  0 
 -1.191004e-04  -8.896137e-03  0 
 9.466479e-04  -8.849209e-03  0 
 2.106478e-03  -8.792277e-03  0 
 2.337786e-03  -8.647726e-03  0 
 3.330997e-03  -1.000861e-02  0 
 3.394616e-03  -1.130486e-02  0 
 -5.928446e-04  -9.555977e-03  0 
 -4.985594e-04  -8.971893e-03  0 
 9.718890e-05  -8.574922e-03  0 
 9.111303e-04  -8.301380e-03  0 
 3.312629e-04  -8.054531e-03  0 
 3.936196e-05  -8.326166e-03  0 
 1.939045e-03  -9.117423e-03  0 
 -6.471230e-04  -8.959558e-03  0 
 2.391432e-03  -9.267129e-03  0 
 2.400849e-03  -1.037902e-02  0 
 -1.141193e-04  -9.708774e-03  0 
 2.240241e-03  -1.121507e-02  0 
 1.675502e-03  -9.718397e-03  0 
 5.689145e-04  -1.029116e-02  0 
 1.483533e-03  -1.069743e-02  0 
 2.540064e-03  -9.506037e-03  0 
 2.549278e-03  -1.136229e-02  0 
 4.266014e-03  -1.358856e-02  0 
 3.925992e-03  -1.710497e-02  0 
VECTORS displacement_ITER6 FLOAT
 -1.452791e-05  -7.716101e-03  0 
 2.025254e-03  -7.424577e-03  0 
 3.570307e-05  -5.891568e-03  0 
 6.941028e-06  -6.782371e-03  0 
 1.993183e-03  -6.975838e-03  0 
 3.278165e-04  -7.678767e-03  0 
 8.023525e-04  -7.592862e-03  0 
 1.407159e-03  -7.514831e-03  0 
 2.298690e-03  -7.325225e-03  0 
 2.084696e-03  -8.179145e-03  0 
 2.151361e-03  -8.928294e-03  0 
 -6.103873e-04  -6.832834e-03  0 
 9.124825e-04  -6.482234e-03  0 
 7.248236e-04  -6.850197e-03  0 
 7.605279e-04  -6.753616e-03  0 
 8.604566e-04  -6.497042e-03  0 
 -2.128153e-04  -7.000865e-03  0 
 1.060943e-03  -7.383222e-03  0 
 4.450067e-04  -7.228865e-03  0 
 2.345398e-03  -7.121738e-03  0 
 1.557316e-03  -8.370766e-03  0 
 3.039247e-04  -8.016223e-03  0 
 1.481477e-03  -8.836651e-03  0 
 1.166302e-03  -8.015541e-03  0 
 6.182461e-04  -8.301819e-03  0 
 1.074276e-03  -8.528750e-03  0 
 1.628377e-03  -7.882642e-03  0 
 1.181289e-03  -9.734808e-03  0 
 1.392905e-03  -1.071297e-02  0 
 8.791036e-04  -1.401347e-02  0 
VECTORS displacement_ITER7 FLOAT
 4.945876e-05  -6.257605e-03  0 
 2.041368e-03  -6.194580e-03  0 
 9.765053e-05  -5.198690e-03  0 
 8.999568e-05  -5.717304e-03  0 
 2.023315e-03  -5.901539e-03  0 
 4.554041e-04  -6.277064e-03  0 
 9.714506e-04  -6.249282e-03  0 
 1.530903e-03  -6.236998e-03  0 
 2.249919e-03  -6.133401e-03  0 
 2.103451e-03  -6.821479e-03  0 
 2.147230e-03  -7.430390e-03  0 
 -2.396770e-04  -5.752506e-03  0 
 1.042603e-03  -5.404093e-03  0 
 9.157774e-04  -5.679276e-03  0 
 1.128771e-03  -5.610114e-03  0 
 1.192732e-03  -5.331371e-03  0 
 8.021894e-04  -5.560519e-03  0 
 1.468020e-03  -6.012382e-03  0 
 5.409307e-04  -6.002312e-03  0 
 2.264874e-03  -5.958930e-03  0 
 1.669110e-03  -6.990145e-03  0 
 4.536543e-04  -6.656146e-03  0 
 1.593084e-03  -7.398298e-03  0 
 1.328593e-03  -6.675671e-03  0 
 7.930724e-04  -6.958552e-03  0 
 1.238032e-03  -7.155674e-03  0 
 1.725072e-03  -6.565976e-03  0 
 9.911420e-04  -8.285151e-03  0 
 1.040371e-04  -9.091099e-03  0 
 -1.197637e-04  -1.112378e-02  0 
VECTORS displacement_ITER8 FLOAT
 3.255740e-04  -5.863612e-03  0 
 1.607325e-03  -5.927277e-03  0 
 3.731925e-04  -4.821437e-03  0 
 3.723450e-04  -5.339875e-03  0 
 1.563197e-03  -5.530880e-03  0 
 6.526833e-04  -5.907804e-03  0 
 1.015805e-03  -5.929752e-03  0 
 1.347443e-03  -5.951767e-03  0 
 1.895088e-03  -5.862208e-03  0 
 1.672324e-03  -6.298630e-03  0 
 1.711305e-03  -6.666290e-03  0 
 5.824307e-05  -5.376817e-03  0 
 6.637658e-04  -5.166542e-03  0 
 8.179503e-04  -5.503903e-03  0 
 1.061444e-03  -5.539662e-03  0 
 8.665283e-04  -5.212679e-03  0 
 1.004382e-03  -5.218929e-03  0 
 1.316610e-03  -5.672317e-03  0 
 5.638428e-04  -5.564113e-03  0 
 1.914028e-03  -5.662019e-03  0 
 1.425519e-03  -6.388276e-03  0 
 6.675813e-04  -6.187308e-03  0 
 1.385830e-03  -6.625194e-03  0 
 1.236657e-03  -6.203287e-03  0 
 9.032383e-04  -6.389586e-03  0 
 1.180835e-03  -6.498539e-03  0 
 1.450680e-03  -6.135805e-03  0 
 4.742858e-04  -8.031147e-03  0 
 -1.704551e-04  -8.771551e-03  0 
 -6.283737e-04  -1.135820e-02  0 
VECTORS displacement_ITER9 FLOAT
 1.461248e-04  -5.630270e-03  0 
 1.700790e-03  -5.686169e-03  0 
 2.097471e-04  -4.754657e-03  0 
 2.020887e-04  -5.190583e-03  0 
 1.672331e-03  -5.361275e-03  0 
 5.122144e-04  -5.678176e-03  0 
 9.340868e-04  -5.693054e-03  0 
 1.351205e-03  -5.711183e-03  0 
 1.946690e-03  -5.642035e-03  0 
 1.762997e-03  -6.147112e-03  0 
 1.795374e-03  -6.596108e-03  0 
 -5.473934e-05  -5.229388e-03  0 
 4.448763e-04  -5.106997e-03  0 
 6.898491e-04  -5.385878e-03  0 
 1.082557e-03  -5.420750e-03  0 
 7.738036e-04  -5.122492e-03  0 
 1.278007e-03  -5.097928e-03  0 
 1.432519e-03  -5.447186e-03  0 
 3.927737e-04  -5.391197e-03  0 
 1.950364e-03  -5.448111e-03  0 
 1.455415e-03  -6.266890e-03  0 
 5.258677e-04  -6.000159e-03  0 
 1.406607e-03  -6.562879e-03  0 
 1.209258e-03  -6.029031e-03  0 
 7.987419e-04  -6.246209e-03  0 
 1.143243e-03  -6.391515e-03  0 
 1.489215e-03  -5.951179e-03  0 
 4.625133e-04  -7.805690e-03  0 
 1.428168e-04  -8.141733e-03  0 
 -8.715954e-04  -1.132095e-02  0 
VECTORS displacement_ITER10 FLOAT
 1.904869e-04  -5.581427e-03  0 
 1.696900e-03  -5.637993e-03  0 
 2.474690e-04  -4.795820e-03  0 
 2.377384e-04  -5.176627e-03  0 
 1.660493e-03  -5.323182e-03  0 
 5.670440e-04  -5.639158e-03  0 
 9.637436e-04  -5.662561e-03  0 
 1.356417e-03  -5.665930e-03  0 
 1.924222e-03  -5.594652e-03  0 
 1.760223e-03  -6.089904e-03  0 
 1.796651e-03  -6.526049e-03  0 
 3.472317e-06  -5.208456e-03  0 
 4.874907e-04  -5.064564e-03  0 
 7.192207e-04  -5.326139e-03  0 
 1.074242e-03  -5.339347e-03  0 
 7.987838e-04  -5.032517e-03  0 
 1.184892e-03  -4.970971e-03  0 
 1.411552e-03  -5.400081e-03  0 
 4.319742e-04  -5.348673e-03  0 
 1.927567e-03  -5.420691e-03  0 
 1.459562e-03  -6.204245e-03  0 
 5.867549e-04  -5.956897e-03  0 
 1.412011e-03  -6.500167e-03  0 
 1.216601e-03  -5.972168e-03  0 
 8.321420e-04  -6.178022e-03  0 
 1.151160e-03  -6.321717e-03  0 
 1.490783e-03  -5.896925e-03  0 
 4.490154e-04  -7.780346e-03  0 
 3.759477e-04  -8.155009e-03  0 
 -9.245771e-04  -1.120526e-02  0 
VECTORS displacement_ITER11 FLOAT
 1.996728e-04  -5.582187e-03  0 
 1.707041e-03  -5.635022e-03  0 
 2.566881e-04  -4.767819e-03  0 
 2.448094e-04  -5.162228e-03  0 
 1.669782e-03  -5.315250e-03  0 
 5.663313e-04  -5.636273e-03  0 
 9.664956e-04  -5.655534e-03  0 
 1.364892e-03  -5.662040e-03  0 
 1.937049e-03  -5.588904e-03  0 
 1.770306e-03  -6.088621e-03  0 
 1.805601e-03  -6.525323e-03  0 
 -2.385652e-06  -5.194580e-03  0 
 4.528177e-04  -5.051597e-03  0 
 7.100713e-04  -5.331910e-03  0 
 1.090436e-03  -5.357961e-03  0 
 7.781281e-04  -5.034096e-03  0 
 1.240956e-03  -5.000458e-03  0 
 1.431647e-03  -5.395881e-03  0 
 4.231564e-04  -5.338381e-03  0 
 1.942130e-03  -5.414873e-03  0 
 1.468420e-03  -6.204260e-03  0 
 5.835221e-04  -5.951391e-03  0 
 1.419829e-03  -6.501045e-03  0 
 1.224523e-03  -5.970835e-03  0 
 8.349907e-04  -6.177579e-03  0 
 1.159472e-03  -6.323587e-03  0 
 1.500088e-03  -5.895028e-03  0 
 4.350795e-04  -7.830816e-03  0 
 4.892041e-04  -8.300329e-03  0 
 -1.051679e-03  -1.103577e-02  0 
VECTORS displacement_ITER12 FLOAT
 1.953377e-04  -5.579961e-03  0 
 1.705658e-03  -5.633865e-03  0 
 2.541120e-04  -4.769771e-03  0 
 2.415766e-04  -5.161727e-03  0 
 1.668383e-03  -5.314356e-03  0 
 5.640405e-04  -5.635023e-03  0 
 9.654938e-04  -5.654886e-03  0 
 1.363575e-03  -5.661225e-03  0 
 1.935354e-03  -5.588525e-03  0 
 1.768993e-03  -6.087581e-03  0 
 1.804635e-03  -6.524705e-03  0 
 -3.868778e-06  -5.194465e-03  0 
 4.491349e-04  -5.037220e-03  0 
 7.060248e-04  -5.328519e-03  0 
 1.089696e-03  -5.365526e-03  0 
 7.637344e-04  -5.037070e-03  0 
 1.247387e-03  -5.015172e-03  0 
 1.431437e-03  -5.397672e-03  0 
 4.184347e-04  -5.333882e-03  0 
 1.940033e-03  -5.414293e-03  0 
 1.466830e-03  -6.203126e-03  0 
 5.815982e-04  -5.951646e-03  0 
 1.418067e-03  -6.500184e-03  0 
 1.223224e-03  -5.969970e-03  0 
 8.335426e-04  -6.177439e-03  0 
 1.157930e-03  -6.322599e-03  0 
 1.498613e-03  -5.893981e-03  0 
 4.359361e-04  -7.829717e-03  0 
 4.831421e-04  -8.307839e-03  0 
 -1.047901e-03  -1.102527e-02  0 
VECTORS displacement_ITER13 FLOAT
 1.955878e-04  -5.580440e-03  0 
 1.705768e-03  -5.634095e-03  0 
 2.544032e-04  -4.769435e-03  0 
 2.418702e-04  -5.161682e-03  0 
 1.668481e-03  -5.314459e-03  0 
 5.645527e-04  -5.635295e-03  0 
 9.659594e-04  -5.655047e-03  0 
 1.363891e-03  -5.661398e-03  0 
 1.935525e-03  -5.588706e-03  0 
 1.769078e-03  -6.087576e-03  0 
 1.804619e-03  -6.524397e-03  0 
 -3.805872e-06  -5.194414e-03  0 
 4.496824e-04  -5.038961e-03  0 
 7.064609e-04  -5.328868e-03  0 
 1.090016e-03  -5.365111e-03  0 
 7.648688e-04  -5.036741e-03  0 
 1.246933e-03  -5.014389e-03  0 
 1.431514e-03  -5.397711e-03  0 
 4.190879e-04  -5.334344e-03  0 
 1.940243e-03  -5.414456e-03  0 
 1.467152e-03  -6.203074e-03  0 
 5.820859e-04  -5.951960e-03  0 
 1.418464e-03  -6.499970e-03  0 
 1.223618e-03  -5.969964e-03  0 
 8.338821e-04  -6.177419e-03  0 
 1.158363e-03  -6.322439e-03  0 
 1.498876e-03  -5.894061e-03  0 
 4.361673e-04  -7.829728e-03  0 
 4.830773e-04  -8.308014e-03  0 
 -1.047354e-03  -1.102524e-02  0 
VECTORS displacement_ITER14 FLOAT
 1.955647e-04  -5.580454e-03  0 
 1.705714e-03  -5.634096e-03  0 
 2.543807e-04  -4.769523e-03  0 
 2.418547e-04  -5.161722e-03  0 
 1.668435e-03  -5.314461e-03  0 
 5.645230e-04  -5.635306e-03  0 
 9.659134e-04  -5.655067e-03  0 
 1.363831e-03  -5.661416e-03  0 
 1.935476e-03  -5.588707e-03  0 
 1.769031e-03  -6.087595e-03  0 
 1.804592e-03  -6.524444e-03  0 
 -3.784807e-06  -5.194449e-03  0 
 4.496350e-04  -5.039485e-03  0 
 7.063588e-04  -5.328889e-03  0 
 1.090051e-03  -5.364902e-03  0 
 7.650607e-04  -5.036249e-03  0 
 1.246751e-03  -5.014214e-03  0 
 1.431438e-03  -5.397673e-03  0 
 4.190901e-04  -5.334431e-03  0 
 1.940196e-03  -5.414444e-03  0 
 1.467078e-03  -6.203096e-03  0 
 5.820577e-04  -5.951958e-03  0 
 1.418367e-03  -6.500035e-03  0 
 1.223562e-03  -5.969978e-03  0 
 8.338564e-04  -6.177379e-03  0 
 1.158333e-03  -6.322452e-03  0 
 1.498811e-03  -5.894072e-03  0 
 4.360971e-04  -7.829732e-03  0 
 4.830705e-04  -8.307903e-03  0 
 -1.047450e-03  -1.102537e-02  0 
CELL_DATA 42
TENSORS element_stresses FLOAT
 -1.753753e-01  -1.713473e-01  0 
 -1.713473e-01  3.261597e-02  0 
 0  0  0 

 -2.466708e-02  -8.289375e-02  0 
 -8.289375e-02  8.479004e-02  0 
 0  0  0 

 -4.657764e-05  -3.404088e-04  0 
 -3.404088e-04  1.175483e-05  0 
 0  0  0 

 4.412051e-05  -1.727788e-04  0 
 -1.727788e-04  -6.580704e-05  0 
 0  0  0 

 4.613042e-05  -6.673832e-05  0 
 -6.673832e-05  -1.155844e-05  0 
 0  0  0 

 4.844919e-05  -1.668210e-04  0 
 -1.668210e-04  -1.700547e-04  0 
 0  0  0 

 1.251877e-04  9.268088e-06  0 
 9.268088e-06  -7.975815e-05  0 
 0  0  0 

 1.021848e-04  -1.329724e-04  0 
 -1.329724e-04  1.399366e-04  0 
 0  0  0 

 -2.120452e-04  -3.179354e-04  0 
 -3.179354e-04  -8.961699e-05  0 
 0  0  0 

 -3.098900e-05  -3.078683e-04  0 
 -3.078683e-04  -2.287047e-04  0 
 0  0  0 

 -1.266462e-05  -4.134078e-04  0 
 -4.134078e-04  -2.502665e-05  0 
 0  0  0 

 9.300898e-05  -6.583162e-05  0 
 -6.583162e-05  -6.868534e-05  0 
 0  0  0 

 -4.893540e-05  -2.914176e-04  0 
 -2.914176e-04  -2.071974e-04  0 
 0  0  0 

 -1.313297e-06  -1.428440e-04  0 
 -1.428440e-04  -1.707952e-04  0 
 0  0  0 

 8.582040e-06  -1.051989e-04  0 
 -1.051989e-04  -1.676947e-04  0 
 0  0  0 

 9.798329e-05  -5.599510e-05  0 
 -5.599510e-05  -1.401845e-04  0 
 0  0  0 

 6.766082e-05  1.226775e-05  0 
 1.226775e-05  -2.303387e-04  0 
 0  0  0 

 1.389087e-04  -1.325236e-04  0 
 -1.325236e-04  -1.616856e-04  0 
 0  0  0 

 6.900244e-05  7.015208e-07  0 
 7.015208e-07  -7.855868e-05  0 
 0  0  0 

 1.706737e-01  -1.712196e-01  0 
 -1.712196e-01  7.186188e-02  0 
 0  0  0 

 3.412307e-03  -9.529498e-02  0 
 -9.529498e-02  1.825809e-01  0 
 0  0  0 

 1.090367e-01  -4.991632e-02  0 
 -4.991632e-02  -1.106857e-01  0 
 0  0  0 

 2.751662e-02  -1.251152e-02  0 
 -1.251152e-02  -7.078820e-02  0 
 0  0  0 

 7.919227e-02  -5.340520e-02  0 
 -5.340520e-02  -8.472669e-02  0 
 0  0  0 

 6.890419e-02  -1.341395e-01  0 
 -1.341395e-01  -2.841338e-02  0 
 0  0  0 

 -5.874019e-03  -3.621513e-03  0 
 -3.621513e-03  -2.715977e-02  0 
 0  0  0 

 2.215283e-02  -8.270645e-02  0 
 -8.270645e-02  -1.056698e-02  0 
 0  0  0 

 -1.423716e-02  -4.577446e-02  0 
 -4.577446e-02  -9.608921e-02  0 
 0  0  0 

 1.444152e-02  -2.854342e-02  0 
 -2.854342e-02  5.435904e-04  0 
 0  0  0 

 1.438830e-02  -8.345462e-02  0 
 -8.345462e-02  -3.984290e-02  0 
 0  0  0 

 -1.510216e-02  -1.095339e-01  0 
 -1.095339e-01  -2.239387e-01  0 
 0  0  0 

 7.139875e-02  -1.525351e-01  0 
 -1.525351e-01  1.307008e-01  0 
 0  0  0 

 7.717201e-02  -8.501355e-02  0 
 -8.501355e-02  -1.355157e-01  0 
 0  0  0 

 2.323900e-01  -1.730795e-01  0 
 -1.730795e-01  -6.959880e-02  0 
 0  0  0 

 -2.115829e-02  -4.402929e-02  0 
 -4.402929e-02  7.424091e-02  0 
 0  0  0 

 1.121649e-01  -1.749734e-01  0 
 -1.749734e-01  7.139330e-02  0 
 0  0  0 

 -1.086426e-02  -1.153112e-02  0 
 -1.153112e-02  -6.700753e-03  0 
 0  0  0 

 -9.058536e-03  -9.287055e-03  0 
 -9.287055e-03  -2.536004e-03  0 
 0  0  0 

 -3.483181e-03  -7.509265e-03  0 
 -7.509265e-03  -1.245483e-02  0 
 0  0  0 

 -5.411173e-03  -9.178354e-03  0 
 -9.178354e-03  -1.851138e-02  0 
 0  0  0 

 -6.993077e-03  -1.274336e-02  0 
 -1.274336e-02  -1.620820e-02  0 
 0  0  0 

 -8.681917e-03  -1.021998e-02  0 
 -1.021998e-02  -5.961721e-03  0 
 0  0  0 

TENSORS element_stresses FLOAT
 -1.753753e-01  -1.713473e-01  0 
 -1.713473e-01  3.261597e-02  0 
 0  0  0 

 -2.466708e-02  -8.289375e-02  0 
 -8.289375e-02  8.479004e-02  0 
 0  0  0 

 -4.657764e-05  -3.404088e-04  0 
 -3.404088e-04  1.175483e-05  0 
 0  0  0 

 4.412051e-05  -1.727788e-04  0 
 -1.727788e-04  -6.580704e-05  0 
 0  0  0 

 4.613042e-05  -6.673832e-05  0 
 -6.673832e-05  -1.155844e-05  0 
 0  0  0 

 4.844919e-05  -1.668210e-04  0 
 -1.668210e-04  -1.700547e-04  0 
 0  0  0 

 1.251877e-04  9.268088e-06  0 
 9.268088e-06  -7.975815e-05  0 
 0  0  0 

 1.021848e-04  -1.329724e-04  0 
 -1.329724e-04  1.399366e-04  0 
 0  0  0 

 -2.120452e-04  -3.179354e-04  0 
 -3.179354e-04  -8.961699e-05  0 
 0  0  0 

 -3.098900e-05  -3.078683e-04  0 
 -3.078683e-04  -2.287047e-04  0 
 0  0  0 

 -1.266462e-05  -4.134078e-04  0 
 -4.134078e-04  -2.502665e-05  0 
 0  0  0 

 9.300898e-05  -6.583162e-05  0 
 -6.583162e-05  -6.868534e-05  0 
 0  0  0 

 -4.893540e-05  -2.914176e-04  0 
 -2.914176e-04  -2.071974e-04  0 
 0  0  0 

 -1.313297e-06  -1.428440e-04  0 
 -1.428440e-04  -1.707952e-04  0 
 0  0  0 

 8.582040e-06  -1.051989e-04  0 
 -1.051989e-04  -1.676947e-04  0 
 0  0  0 

 9.798329e-05  -5.599510e-05  0 
 -5.599510e-05  -1.401845e-04  0 
 0  0  0 

 6.766082e-05  1.226775e-05  0 
 1.226775e-05  -2.303387e-04  0 
 0  0  0 

 1.389087e-04  -1.325236e-04  0 
 -1.325236e-04  -1.616856e-04  0 
 0  0  0 

 6.900244e-05  7.015208e-07  0 
 7.015208e-07  -7.855868e-05  0 
 0  0  0 

 1.706737e-01  -1.712196e-01  0 
 -1.712196e-01  7.186188e-02  0 
 0  0  0 

 3.412307e-03  -9.529498e-02  0 
 -9.529498e-02  1.825809e-01  0 
 0  0  0 

 1.090367e-01  -4.991632e-02  0 
 -4.991632e-02  -1.106857e-01  0 
 0  0  0 

 2.751662e-02  -1.251152e-02  0 
 -1.251152e-02  -7.078820e-02  0 
 0  0  0 

 7.919227e-02  -5.340520e-02  0 
 -5.340520e-02  -8.472669e-02  0 
 0  0  0 

 6.890419e-02  -1.341395e-01  0 
 -1.341395e-01  -2.841338e-02  0 
 0  0  0 

 -5.874019e-03  -3.621513e-03  0 
 -3.621513e-03  -2.715977e-02  0 
 0  0  0 

 2.215283e-02  -8.270645e-02  0 
 -8.270645e-02  -1.056698e-02  0 
 0  0  0 

 -1.423716e-02  -4.577446e-02  0 
 -4.577446e-02  -9.608921e-02  0 
 0  0  0 

 1.444152e-02  -2.854342e-02  0 
 -2.854342e-02  5.435904e-04  0 
 0  0  0 

 1.438830e-02  -8.345462e-02  0 
 -8.345462e-02  -3.984290e-02  0 
 0  0  0 

 -1.510216e-02  -1.095339e-01  0 
 -1.095339e-01  -2.239387e-01  0 
 0  0  0 

 7.139875e-02  -1.525351e-01  0 
 -1.525351e-01  1.307008e-01  0 
 0  0  0 

 7.717201e-02  -8.501355e-02  0 
 -8.501355e-02  -1.355157e-01  0 
 0  0  0 

 2.323900e-01  -1.730795e-01  0 
 -1.730795e-01  -6.959880e-02  0 
 0  0  0 

 -2.115829e-02  -4.402929e-02  0 
 -4.402929e-02  7.424091e-02  0 
 0  0  0 

 1.121649e-01  -1.749734e-01  0 
 -1.749734e-01  7.139330e-02  0 
 0  0  0 

 -1.086426e-02  -1.153112e-02  0 
 -1.153112e-02  -6.700753e-03  0 
 0  0  0 

 -9.058536e-03  -9.287055e-03  0 
 -9.287055e-03  -2.536004e-03  0 
 0  0  0 

 -3.483181e-03  -7.509265e-03  0 
 -7.509265e-03  -1.245483e-02  0 
 0  0  0 

 -5.411173e-03  -9.178354e-03  0 
 -9.178354e-03  -1.851138e-02  0 
 0  0  0 

 -6.993077e-03  -1.274336e-02  0 
 -1.274336e-02  -1.620820e-02  0 
 0  0  0 

 -8.681917e-03  -1.021998e-02  0 
 -1.021998e-02  -5.961721e-03  0 
 0  0  0 

