# vtk DataFile Version 3.1
this is an vtk file created by FEMAC
ASCII
DATASET UNSTRUCTURED_GRID
POINTS 30 FLOAT
4.000000 4.000000 0.000000
3.500000 4.000000 0.000000
3.750000 4.000000 0.000000
4.000000 3.500000 0.000000
4.000000 3.750000 0.000000
4.000000 4.250000 0.000000
4.000000 4.500000 0.000000
4.250000 4.000000 0.000000
4.500000 4.000000 0.000000
4.750000 4.000000 0.000000
3.813081 3.669072 0.000000
3.660928 3.805846 0.000000
3.844802 3.844984 0.000000
3.630781 4.172236 0.000000
3.755447 4.375936 0.000000
3.824845 4.167874 0.000000
3.536362 4.315974 0.000000
4.195000 3.745000 0.000000
4.375084 3.791072 0.000000
4.300774 3.567728 0.000000
4.588195 3.700568 0.000000
4.178472 4.325972 0.000000
4.225000 4.500000 0.000000
4.341551 4.171968 0.000000
4.581177 4.216647 0.000000
4.398247 4.399662 0.000000
4.401594 4.630720 0.000000
4.661856 4.507893 0.000000
4.832172 4.245757 0.000000
4.154005 4.149588 0.000000
CELLS 43 172 
3 10  3  4
3 11  2  1
3 2 12  0
3 4 12 10
3 12  4  0
3 11 12  2
3 11 10 12
3 2 13  1
3 15  2  0
3 5 15  0
3 15 13  2
3 6 14  5
3 15  5 14
3 14 13 15
3 14 16 13
3 3 17  4
3 7 18  8
3 17 18  7
3 3 19 17
3 17 19 18
3 17  0  4
3 7  0 17
3 19 20 18
3 8 20  9
3 18 20  8
3 21  6  5
3 21 22  6
3 21 25 22
3 23  7  8
3 9 24  8
3 23 25 21
3 22 25 26
3 29  5  0
3 7 29  0
3 5 29 21
3 28 24  9
3 23 29  7
3 23 21 29
3 23  8 24
3 23 24 25
3 26 25 27
3 27 25 24
3 27 24 28
CELL_TYPES 43
5 5 5 5 5 5 5 5 5 5 5 5 5 5 5 5 5 5 5 5 5 5 5 5 5 5 5 5 5 5 5 5 5 5 5 5 5 5 5 5 5 5 5 
POINT_DATA 30
VECTORS displacement_ITER1 FLOAT
 4.929706e-02  -2.323337e-01  0 
 4.938112e-02  -1.981359e-01  0 
 4.933897e-02  -2.152417e-01  0 
 1.533882e-02  -2.322635e-01  0 
 3.229831e-02  -2.322882e-01  0 
 7.089124e-02  -2.323639e-01  0 
 9.251586e-02  -2.323768e-01  0 
 4.927631e-02  -2.539970e-01  0 
 4.927047e-02  -2.756448e-01  0 
 4.926926e-02  -2.972887e-01  0 
 2.679554e-02  -2.195836e-01  0 
 3.609162e-02  -2.091975e-01  0 
 3.874805e-02  -2.217411e-01  0 
 6.177778e-02  -1.946158e-01  0 
 7.732835e-02  -1.998670e-01  0 
 6.087742e-02  -2.139539e-01  0 
 7.694241e-02  -1.715972e-01  0 
 3.321570e-02  -2.495309e-01  0 
 3.812938e-02  -2.656307e-01  0 
 2.354691e-02  -2.557205e-01  0 
 3.571481e-02  -2.845261e-01  0 
 7.747106e-02  -2.478080e-01  0 
 9.252469e-02  -2.518428e-01  0 
 6.415538e-02  -2.619201e-01  0 
 6.801888e-02  -2.826706e-01  0 
 8.384982e-02  -2.668342e-01  0 
 1.038362e-01  -2.671291e-01  0 
 9.321488e-02  -2.896569e-01  0 
 7.053865e-02  -3.044073e-01  0 
 6.222249e-02  -2.456762e-01  0 
VECTORS displacement_ITER2 FLOAT
 4.042265e-02  -1.078788e-01  0 
 4.049440e-02  -8.768640e-02  0 
 4.045910e-02  -9.778699e-02  0 
 2.060737e-02  -1.076888e-01  0 
 3.047359e-02  -1.077581e-01  0 
 5.112982e-02  -1.079737e-01  0 
 6.183215e-02  -1.080341e-01  0 
 4.040968e-02  -1.187044e-01  0 
 4.041428e-02  -1.294671e-01  0 
 4.042309e-02  -1.402177e-01  0 
 2.725040e-02  -1.003328e-01  0 
 3.266765e-02  -9.423966e-02  0 
 3.422591e-02  -1.016136e-01  0 
 4.266352e-02  -9.331892e-02  0 
 4.419352e-02  -9.797580e-02  0 
 4.495833e-02  -9.876222e-02  0 
 3.656323e-02  -9.908798e-02  0 
 3.171313e-02  -1.168500e-01  0 
 3.523912e-02  -1.249328e-01  0 
 2.748032e-02  -1.184811e-01  0 
 3.538779e-02  -1.345021e-01  0 
 5.440535e-02  -1.156437e-01  0 
 6.186109e-02  -1.176663e-01  0 
 4.780694e-02  -1.226468e-01  0 
 4.972408e-02  -1.329592e-01  0 
 5.757178e-02  -1.250956e-01  0 
 6.746912e-02  -1.252506e-01  0 
 6.221176e-02  -1.364216e-01  0 
 5.097418e-02  -1.437548e-01  0 
 4.684877e-02  -1.145616e-01  0 
VECTORS displacement_ITER3 FLOAT
 1.548789e-02  -4.137671e-02  0 
 1.552616e-02  -2.865577e-02  0 
 1.550789e-02  -3.499423e-02  0 
 3.117328e-03  -4.114063e-02  0 
 9.272708e-03  -4.121314e-02  0 
 2.096745e-02  -4.151971e-02  0 
 2.642042e-02  -4.158933e-02  0 
 1.548585e-02  -4.700390e-02  0 
 1.550153e-02  -5.252845e-02  0 
 1.552291e-02  -5.803924e-02  0 
 7.254126e-03  -3.656646e-02  0 
 1.061842e-02  -3.276497e-02  0 
 1.159563e-02  -3.739429e-02  0 
 1.570712e-02  -3.411091e-02  0 
 1.574524e-02  -3.767257e-02  0 
 1.763112e-02  -3.647654e-02  0 
 9.333362e-03  -4.161387e-02  0 
 1.006096e-02  -4.624820e-02  0 
 1.195740e-02  -5.033294e-02  0 
 6.948712e-03  -4.780358e-02  0 
 1.196625e-02  -5.430055e-02  0 
 2.264904e-02  -4.545022e-02  0 
 2.644783e-02  -4.649878e-02  0 
 1.928559e-02  -4.903429e-02  0 
 2.026712e-02  -5.432277e-02  0 
 2.426380e-02  -5.029689e-02  0 
 2.930231e-02  -5.037212e-02  0 
 2.661260e-02  -5.608003e-02  0 
 2.090287e-02  -5.983697e-02  0 
 1.879688e-02  -4.487204e-02  0 
VECTORS displacement_ITER4 FLOAT
 3.739060e-03  -1.345105e-02  0 
 3.722893e-03  -7.103257e-03  0 
 3.732814e-03  -1.024856e-02  0 
 -2.258185e-03  -1.319314e-02  0 
 7.111891e-04  -1.325787e-02  0 
 5.231036e-03  -1.363066e-02  0 
 6.673337e-03  -1.370721e-02  0 
 3.755441e-03  -1.509769e-02  0 
 3.779012e-03  -1.660987e-02  0 
 3.799050e-03  -1.810718e-02  0 
 -2.713437e-04  -1.099423e-02  0 
 1.335417e-03  -9.149276e-03  0 
 1.814040e-03  -1.142425e-02  0 
 4.558952e-03  -1.010168e-02  0 
 5.418094e-03  -1.192333e-02  0 
 4.782528e-03  -1.173714e-02  0 
 3.860727e-03  -1.179024e-02  0 
 1.376998e-03  -1.567367e-02  0 
 1.929489e-03  -1.709418e-02  0 
 -6.006295e-04  -1.768255e-02  0 
 9.154414e-04  -1.970488e-02  0 
 5.692132e-03  -1.470014e-02  0 
 6.686172e-03  -1.499568e-02  0 
 4.802409e-03  -1.566268e-02  0 
 5.063724e-03  -1.709463e-02  0 
 6.113790e-03  -1.600769e-02  0 
 7.409816e-03  -1.601514e-02  0 
 6.699080e-03  -1.752448e-02  0 
 5.223201e-03  -1.856750e-02  0 
 4.671722e-03  -1.450933e-02  0 
VECTORS displacement_ITER5 FLOAT
 2.606435e-03  -5.777847e-03  0 
 2.610476e-03  -2.967705e-03  0 
 2.612437e-03  -4.345410e-03  0 
 2.327014e-04  -5.487870e-03  0 
 1.382401e-03  -5.563016e-03  0 
 3.436379e-03  -5.978791e-03  0 
 4.218967e-03  -6.074098e-03  0 
 2.613873e-03  -6.790465e-03  0 
 2.628588e-03  -7.659857e-03  0 
 2.635445e-03  -8.529268e-03  0 
 9.842014e-04  -4.650298e-03  0 
 1.603128e-03  -3.889381e-03  0 
 1.796547e-03  -4.852751e-03  0 
 2.562480e-03  -4.112907e-03  0 
 2.434581e-03  -4.655584e-03  0 
 2.854241e-03  -4.700174e-03  0 
 9.822278e-04  -5.940849e-03  0 
 1.715245e-03  -6.877202e-03  0 
 1.954783e-03  -7.733936e-03  0 
 7.385681e-04  -8.085547e-03  0 
 1.802967e-03  -8.536666e-03  0 
 3.703310e-03  -6.582834e-03  0 
 4.242123e-03  -6.767234e-03  0 
 3.217148e-03  -7.116437e-03  0 
 3.362244e-03  -7.929674e-03  0 
 3.935862e-03  -7.321040e-03  0 
 4.621621e-03  -7.327863e-03  0 
 4.237617e-03  -8.146750e-03  0 
 3.440237e-03  -8.747142e-03  0 
 3.146302e-03  -6.446782e-03  0 
VECTORS displacement_ITER6 FLOAT
 1.728741e-03  -5.377308e-03  0 
 1.710813e-03  -3.284870e-03  0 
 1.718547e-03  -4.291171e-03  0 
 1.580942e-04  -4.991580e-03  0 
 8.848344e-04  -5.098898e-03  0 
 2.234585e-03  -5.630237e-03  0 
 2.677273e-03  -5.746249e-03  0 
 1.757532e-03  -6.090475e-03  0 
 1.789101e-03  -6.612774e-03  0 
 1.803486e-03  -7.111464e-03  0 
 6.127018e-04  -4.482370e-03  0 
 9.978669e-04  -3.967095e-03  0 
 1.136080e-03  -4.648659e-03  0 
 1.959383e-03  -4.208986e-03  0 
 2.222366e-03  -4.919005e-03  0 
 2.034393e-03  -4.833680e-03  0 
 1.700131e-03  -4.755863e-03  0 
 1.253537e-03  -5.992983e-03  0 
 1.627391e-03  -6.502714e-03  0 
 1.029632e-03  -6.233374e-03  0 
 2.104779e-03  -6.543952e-03  0 
 2.401880e-03  -5.998302e-03  0 
 2.693766e-03  -6.121685e-03  0 
 2.131782e-03  -6.300202e-03  0 
 2.213050e-03  -6.769348e-03  0 
 2.526721e-03  -6.427163e-03  0 
 2.875593e-03  -6.429617e-03  0 
 2.667290e-03  -6.873852e-03  0 
 2.249309e-03  -7.213059e-03  0 
 2.088581e-03  -5.881789e-03  0 
VECTORS displacement_ITER7 FLOAT
 1.940278e-03  -4.698211e-03  0 
 1.936943e-03  -3.103580e-03  0 
 1.929989e-03  -3.865012e-03  0 
 9.154638e-04  -4.267594e-03  0 
 1.337821e-03  -4.413142e-03  0 
 2.283864e-03  -4.938395e-03  0 
 2.569244e-03  -5.034597e-03  0 
 1.981068e-03  -5.229081e-03  0 
 2.029056e-03  -5.567083e-03  0 
 2.064886e-03  -5.845853e-03  0 
 1.149343e-03  -4.005192e-03  0 
 1.393305e-03  -3.635375e-03  0 
 1.493903e-03  -4.129239e-03  0 
 1.622126e-03  -3.526345e-03  0 
 2.108212e-03  -4.272371e-03  0 
 1.938977e-03  -4.177361e-03  0 
 1.613587e-03  -3.243600e-03  0 
 1.393697e-03  -4.604272e-03  0 
 1.849324e-03  -5.185706e-03  0 
 1.127421e-03  -4.113081e-03  0 
 2.043492e-03  -5.745596e-03  0 
 2.397256e-03  -5.188552e-03  0 
 2.577166e-03  -5.275109e-03  0 
 2.232223e-03  -5.381077e-03  0 
 2.284065e-03  -5.677750e-03  0 
 2.471602e-03  -5.468988e-03  0 
 2.683295e-03  -5.470764e-03  0 
 2.552541e-03  -5.762184e-03  0 
 2.316953e-03  -5.942474e-03  0 
 2.201812e-03  -5.093104e-03  0 
VECTORS displacement_ITER8 FLOAT
 1.452147e-03  -4.239839e-03  0 
 1.411292e-03  -3.219761e-03  0 
 1.426214e-03  -3.681414e-03  0 
 8.540448e-04  -3.871269e-03  0 
 1.097245e-03  -3.981533e-03  0 
 1.844389e-03  -4.474082e-03  0 
 2.163719e-03  -4.575737e-03  0 
 1.495814e-03  -4.807498e-03  0 
 1.543345e-03  -5.190170e-03  0 
 1.581295e-03  -5.522334e-03  0 
 9.836010e-04  -3.734246e-03  0 
 1.104339e-03  -3.535636e-03  0 
 1.166099e-03  -3.834689e-03  0 
 1.531946e-03  -3.439044e-03  0 
 1.822423e-03  -3.714811e-03  0 
 1.593990e-03  -3.865784e-03  0 
 1.505012e-03  -3.447476e-03  0 
 1.147044e-03  -4.362046e-03  0 
 1.367761e-03  -4.886831e-03  0 
 9.030362e-04  -4.360111e-03  0 
 1.368403e-03  -5.437916e-03  0 
 1.970432e-03  -4.751422e-03  0 
 2.177463e-03  -4.845431e-03  0 
 1.776508e-03  -4.974239e-03  0 
 1.834968e-03  -5.314179e-03  0 
 2.058053e-03  -5.066494e-03  0 
 2.306357e-03  -5.066246e-03  0 
 2.154923e-03  -5.392458e-03  0 
 1.864327e-03  -5.627457e-03  0 
 1.742074e-03  -4.656443e-03  0 
VECTORS displacement_ITER9 FLOAT
 1.538365e-03  -4.137584e-03  0 
 1.463259e-03  -3.083529e-03  0 
 1.503239e-03  -3.532989e-03  0 
 7.763660e-04  -3.810696e-03  0 
 1.122223e-03  -3.901623e-03  0 
 1.913910e-03  -4.376704e-03  0 
 2.202716e-03  -4.494304e-03  0 
 1.578187e-03  -4.692354e-03  0 
 1.617931e-03  -5.064641e-03  0 
 1.647074e-03  -5.393029e-03  0 
 9.828132e-04  -3.591333e-03  0 
 1.160159e-03  -3.357752e-03  0 
 1.223888e-03  -3.699864e-03  0 
 1.658538e-03  -3.489749e-03  0 
 1.838997e-03  -3.765577e-03  0 
 1.708288e-03  -3.811927e-03  0 
 1.538251e-03  -3.703293e-03  0 
 1.125074e-03  -4.262843e-03  0 
 1.289242e-03  -4.670228e-03  0 
 9.153028e-04  -4.193227e-03  0 
 1.166762e-03  -5.106578e-03  0 
 2.036454e-03  -4.638659e-03  0 
 2.228111e-03  -4.736216e-03  0 
 1.850685e-03  -4.850721e-03  0 
 1.907078e-03  -5.183021e-03  0 
 2.123544e-03  -4.940512e-03  0 
 2.366470e-03  -4.948764e-03  0 
 2.228254e-03  -5.265942e-03  0 
 1.941618e-03  -5.507263e-03  0 
 1.818866e-03  -4.545068e-03  0 
VECTORS displacement_ITER10 FLOAT
 1.550514e-03  -4.103754e-03  0 
 1.468945e-03  -3.083552e-03  0 
 1.512779e-03  -3.505185e-03  0 
 7.829102e-04  -3.783920e-03  0 
 1.136663e-03  -3.870693e-03  0 
 1.910436e-03  -4.341783e-03  0 
 2.190724e-03  -4.454207e-03  0 
 1.591153e-03  -4.643078e-03  0 
 1.633651e-03  -4.998098e-03  0 
 1.665668e-03  -5.306269e-03  0 
 9.959698e-04  -3.556526e-03  0 
 1.174991e-03  -3.327796e-03  0 
 1.238562e-03  -3.667641e-03  0 
 1.624268e-03  -3.386790e-03  0 
 1.856793e-03  -3.729639e-03  0 
 1.695525e-03  -3.771294e-03  0 
 1.635167e-03  -3.375793e-03  0 
 1.196337e-03  -4.318880e-03  0 
 1.340621e-03  -4.701604e-03  0 
 9.936501e-04  -4.390247e-03  0 
 1.255631e-03  -5.082008e-03  0 
 2.028088e-03  -4.594533e-03  0 
 2.209860e-03  -4.685187e-03  0 
 1.852129e-03  -4.796748e-03  0 
 1.904656e-03  -5.110859e-03  0 
 2.107741e-03  -4.881655e-03  0 
 2.338594e-03  -4.885127e-03  0 
 2.202513e-03  -5.191995e-03  0 
 1.935405e-03  -5.404598e-03  0 
 1.821469e-03  -4.502092e-03  0 
VECTORS displacement_ITER11 FLOAT
 1.553967e-03  -4.108970e-03  0 
 1.468411e-03  -3.075077e-03  0 
 1.515723e-03  -3.505281e-03  0 
 7.816673e-04  -3.798372e-03  0 
 1.134671e-03  -3.878408e-03  0 
 1.915371e-03  -4.346401e-03  0 
 2.199914e-03  -4.456931e-03  0 
 1.594793e-03  -4.649413e-03  0 
 1.637616e-03  -5.005937e-03  0 
 1.670103e-03  -5.314944e-03  0 
 9.944202e-04  -3.561922e-03  0 
 1.176664e-03  -3.325847e-03  0 
 1.239596e-03  -3.670384e-03  0 
 1.586761e-03  -3.350319e-03  0 
 1.871887e-03  -3.782169e-03  0 
 1.688785e-03  -3.779204e-03  0 
 1.682595e-03  -3.194898e-03  0 
 1.194835e-03  -4.335960e-03  0 
 1.326774e-03  -4.705632e-03  0 
 9.814555e-04  -4.443742e-03  0 
 1.245223e-03  -5.023171e-03  0 
 2.033522e-03  -4.601101e-03  0 
 2.215736e-03  -4.690791e-03  0 
 1.856819e-03  -4.803829e-03  0 
 1.909401e-03  -5.119225e-03  0 
 2.112957e-03  -4.888155e-03  0 
 2.341611e-03  -4.889332e-03  0 
 2.208054e-03  -5.201313e-03  0 
 1.941060e-03  -5.415298e-03  0 
 1.825742e-03  -4.508101e-03  0 
VECTORS displacement_ITER12 FLOAT
 1.552921e-03  -4.107296e-03  0 
 1.468055e-03  -3.073838e-03  0 
 1.514715e-03  -3.504601e-03  0 
 7.812179e-04  -3.798556e-03  0 
 1.134986e-03  -3.876382e-03  0 
 1.914433e-03  -4.344911e-03  0 
 2.199179e-03  -4.455761e-03  0 
 1.593711e-03  -4.647955e-03  0 
 1.636308e-03  -5.004745e-03  0 
 1.668399e-03  -5.314364e-03  0 
 9.951591e-04  -3.559701e-03  0 
 1.175690e-03  -3.325634e-03  0 
 1.239088e-03  -3.669102e-03  0 
 1.578838e-03  -3.346408e-03  0 
 1.877726e-03  -3.770064e-03  0 
 1.684329e-03  -3.775227e-03  0 
 1.629844e-03  -3.269291e-03  0 
 1.194185e-03  -4.335599e-03  0 
 1.324227e-03  -4.708868e-03  0 
 9.663969e-04  -4.461337e-03  0 
 1.244746e-03  -5.015628e-03  0 
 2.032720e-03  -4.599770e-03  0 
 2.214537e-03  -4.689483e-03  0 
 1.855915e-03  -4.802345e-03  0 
 1.908421e-03  -5.117839e-03  0 
 2.112296e-03  -4.886597e-03  0 
 2.340825e-03  -4.888787e-03  0 
 2.208541e-03  -5.200652e-03  0 
 1.940116e-03  -5.414309e-03  0 
 1.824805e-03  -4.506596e-03  0 
VECTORS displacement_ITER13 FLOAT
 1.553046e-03  -4.107410e-03  0 
 1.468296e-03  -3.073725e-03  0 
 1.514886e-03  -3.504663e-03  0 
 7.812740e-04  -3.798637e-03  0 
 1.135172e-03  -3.876377e-03  0 
 1.914543e-03  -4.345056e-03  0 
 2.199087e-03  -4.456065e-03  0 
 1.593820e-03  -4.648065e-03  0 
 1.636386e-03  -5.004860e-03  0 
 1.668480e-03  -5.314459e-03  0 
 9.953992e-04  -3.559741e-03  0 
 1.175685e-03  -3.325636e-03  0 
 1.239184e-03  -3.669185e-03  0 
 1.578339e-03  -3.349084e-03  0 
 1.876894e-03  -3.772459e-03  0 
 1.684432e-03  -3.776056e-03  0 
 1.640918e-03  -3.256424e-03  0 
 1.194513e-03  -4.335898e-03  0 
 1.324573e-03  -4.709893e-03  0 
 9.643929e-04  -4.464423e-03  0 
 1.246322e-03  -5.014299e-03  0 
 2.032825e-03  -4.599833e-03  0 
 2.214621e-03  -4.689575e-03  0 
 1.856008e-03  -4.802426e-03  0 
 1.908487e-03  -5.117954e-03  0 
 2.112380e-03  -4.886621e-03  0 
 2.341052e-03  -4.888613e-03  0 
 2.208678e-03  -5.200961e-03  0 
 1.940245e-03  -5.414450e-03  0 
 1.824922e-03  -4.506695e-03  0 
VECTORS displacement_ITER14 FLOAT
 1.552990e-03  -4.107404e-03  0 
 1.468216e-03  -3.073781e-03  0 
 1.514837e-03  -3.504656e-03  0 
 7.812872e-04  -3.798605e-03  0 
 1.135129e-03  -3.876367e-03  0 
 1.914492e-03  -4.345044e-03  0 
 2.199083e-03  -4.456009e-03  0 
 1.593769e-03  -4.648061e-03  0 
 1.636340e-03  -5.004858e-03  0 
 1.668435e-03  -5.314461e-03  0 
 9.953793e-04  -3.559789e-03  0 
 1.175642e-03  -3.325602e-03  0 
 1.239135e-03  -3.669188e-03  0 
 1.577732e-03  -3.349313e-03  0 
 1.877047e-03  -3.772503e-03  0 
 1.684189e-03  -3.776070e-03  0 
 1.640618e-03  -3.256065e-03  0 
 1.194400e-03  -4.335636e-03  0 
 1.324649e-03  -4.710037e-03  0 
 9.635134e-04  -4.464531e-03  0 
 1.246764e-03  -5.014182e-03  0 
 2.032774e-03  -4.599842e-03  0 
 2.214587e-03  -4.689591e-03  0 
 1.855962e-03  -4.802428e-03  0 
 1.908447e-03  -5.117954e-03  0 
 2.112337e-03  -4.886633e-03  0 
 2.341001e-03  -4.888619e-03  0 
 2.208614e-03  -5.200926e-03  0 
 1.940196e-03  -5.414444e-03  0 
 1.824869e-03  -4.506694e-03  0 
CELL_DATA 43
TENSORS element_stresses FLOAT
 4.564863e-02  -1.104814e-01  0 
 -1.104814e-01  -2.973537e-01  0 
 0  0  0 

 1.615646e-01  -4.770351e-02  0 
 -4.770351e-02  -8.306864e-02  0 
 0  0  0 

 3.152667e-02  -4.147146e-01  0 
 -4.147146e-01  -4.036204e-01  0 
 0  0  0 

 6.289117e-02  -1.448077e-01  0 
 -1.448077e-01  -3.244312e-01  0 
 0  0  0 

 8.302553e-02  -1.762131e-01  0 
 -1.762131e-01  -8.992409e-01  0 
 0  0  0 

 -5.607079e-02  -7.133659e-02  0 
 -7.133659e-02  -8.882204e-02  0 
 0  0  0 

 -4.013349e-02  -3.302291e-01  0 
 -3.302291e-01  -3.083657e-01  0 
 0  0  0 

 1.089763e-04  -9.455751e-04  0 
 -9.455751e-04  -2.583628e-04  0 
 0  0  0 

 -1.092824e-05  -1.130945e-03  0 
 -1.130945e-03  -5.451367e-04  0 
 0  0  0 

 3.864662e-04  -1.043614e-03  0 
 -1.043614e-03  -8.346204e-04  0 
 0  0  0 

 4.138049e-04  -1.120438e-03  0 
 -1.120438e-03  -5.058918e-04  0 
 0  0  0 

 6.661280e-04  -1.101060e-03  0 
 -1.101060e-03  -2.440202e-04  0 
 0  0  0 

 5.324787e-04  -1.257861e-03  0 
 -1.257861e-03  -7.623831e-04  0 
 0  0  0 

 3.925009e-04  -8.438472e-04  0 
 -8.438472e-04  -6.039983e-04  0 
 0  0  0 

 6.422350e-04  -9.052536e-04  0 
 -9.052536e-04  -5.699335e-04  0 
 0  0  0 

 2.713527e-04  -7.291017e-04  0 
 -7.291017e-04  -2.296425e-04  0 
 0  0  0 

 3.232252e-06  -2.856898e-05  0 
 -2.856898e-05  -5.568360e-04  0 
 0  0  0 

 1.041597e-04  -2.893832e-04  0 
 -2.893832e-04  -7.908933e-04  0 
 0  0  0 

 1.301814e-04  -4.840548e-04  0 
 -4.840548e-04  -4.845580e-04  0 
 0  0  0 

 2.250218e-04  -3.544047e-04  0 
 -3.544047e-04  -3.779137e-04  0 
 0  0  0 

 7.644710e-05  -5.442142e-04  0 
 -5.442142e-04  -9.012145e-04  0 
 0  0  0 

 -7.088763e-05  -4.858899e-04  0 
 -4.858899e-04  -7.800134e-04  0 
 0  0  0 

 1.289232e-04  -1.047611e-04  0 
 -1.047611e-04  -5.084171e-04  0 
 0  0  0 

 3.108954e-05  7.727104e-05  0 
 7.727104e-05  -3.242988e-04  0 
 0  0  0 

 8.829130e-05  -1.938905e-04  0 
 -1.938905e-04  -4.183786e-04  0 
 0  0  0 

 4.946445e-02  -7.719420e-02  0 
 -7.719420e-02  -4.290193e-01  0 
 0  0  0 

 -2.796342e-03  -9.103073e-03  0 
 -9.103073e-03  -2.389993e-01  0 
 0  0  0 

 -4.625948e-02  -1.555355e-01  0 
 -1.555355e-01  -1.971389e-01  0 
 0  0  0 

 1.416766e-01  5.246339e-03  0 
 5.246339e-03  -9.535478e-02  0 
 0  0  0 

 1.219539e-01  -2.348203e-02  0 
 -2.348203e-02  -2.141751e-02  0 
 0  0  0 

 -3.474199e-02  -1.217922e-01  0 
 -1.217922e-01  -5.939736e-02  0 
 0  0  0 

 -1.598506e-02  -1.099534e-01  0 
 -1.099534e-01  3.018748e-03  0 
 0  0  0 

 8.317760e-02  -1.718531e-01  0 
 -1.718531e-01  -9.256070e-01  0 
 0  0  0 

 3.327552e-02  -3.946458e-01  0 
 -3.946458e-01  -4.328029e-01  0 
 0  0  0 

 7.238698e-02  -9.490480e-02  0 
 -9.490480e-02  -3.290524e-01  0 
 0  0  0 

 -6.076768e-03  -5.646058e-02  0 
 -5.646058e-02  -1.416993e-02  0 
 0  0  0 

 -3.943168e-02  -2.738733e-02  0 
 -2.738733e-02  -7.395230e-02  0 
 0  0  0 

 -7.562067e-02  -2.801251e-01  0 
 -2.801251e-01  -3.372526e-01  0 
 0  0  0 

 -2.806377e-02  -3.761994e-02  0 
 -3.761994e-02  -3.922417e-02  0 
 0  0  0 

 -4.030464e-03  -1.422695e-01  0 
 -1.422695e-01  -4.519535e-02  0 
 0  0  0 

 -4.255318e-02  -1.581666e-01  0 
 -1.581666e-01  -4.038616e-03  0 
 0  0  0 

 -5.494118e-02  -1.265834e-01  0 
 -1.265834e-01  3.473421e-02  0 
 0  0  0 

 2.232855e-02  -1.212989e-01  0 
 -1.212989e-01  5.044426e-02  0 
 0  0  0 

TENSORS element_stresses FLOAT
 4.564863e-02  -1.104814e-01  0 
 -1.104814e-01  -2.973537e-01  0 
 0  0  0 

 1.615646e-01  -4.770351e-02  0 
 -4.770351e-02  -8.306864e-02  0 
 0  0  0 

 3.152667e-02  -4.147146e-01  0 
 -4.147146e-01  -4.036204e-01  0 
 0  0  0 

 6.289117e-02  -1.448077e-01  0 
 -1.448077e-01  -3.244312e-01  0 
 0  0  0 

 8.302553e-02  -1.762131e-01  0 
 -1.762131e-01  -8.992409e-01  0 
 0  0  0 

 -5.607079e-02  -7.133659e-02  0 
 -7.133659e-02  -8.882204e-02  0 
 0  0  0 

 -4.013349e-02  -3.302291e-01  0 
 -3.302291e-01  -3.083657e-01  0 
 0  0  0 

 1.089763e-04  -9.455751e-04  0 
 -9.455751e-04  -2.583628e-04  0 
 0  0  0 

 -1.092824e-05  -1.130945e-03  0 
 -1.130945e-03  -5.451367e-04  0 
 0  0  0 

 3.864662e-04  -1.043614e-03  0 
 -1.043614e-03  -8.346204e-04  0 
 0  0  0 

 4.138049e-04  -1.120438e-03  0 
 -1.120438e-03  -5.058918e-04  0 
 0  0  0 

 6.661280e-04  -1.101060e-03  0 
 -1.101060e-03  -2.440202e-04  0 
 0  0  0 

 5.324787e-04  -1.257861e-03  0 
 -1.257861e-03  -7.623831e-04  0 
 0  0  0 

 3.925009e-04  -8.438472e-04  0 
 -8.438472e-04  -6.039983e-04  0 
 0  0  0 

 6.422350e-04  -9.052536e-04  0 
 -9.052536e-04  -5.699335e-04  0 
 0  0  0 

 2.713527e-04  -7.291017e-04  0 
 -7.291017e-04  -2.296425e-04  0 
 0  0  0 

 3.232252e-06  -2.856898e-05  0 
 -2.856898e-05  -5.568360e-04  0 
 0  0  0 

 1.041597e-04  -2.893832e-04  0 
 -2.893832e-04  -7.908933e-04  0 
 0  0  0 

 1.301814e-04  -4.840548e-04  0 
 -4.840548e-04  -4.845580e-04  0 
 0  0  0 

 2.250218e-04  -3.544047e-04  0 
 -3.544047e-04  -3.779137e-04  0 
 0  0  0 

 7.644710e-05  -5.442142e-04  0 
 -5.442142e-04  -9.012145e-04  0 
 0  0  0 

 -7.088763e-05  -4.858899e-04  0 
 -4.858899e-04  -7.800134e-04  0 
 0  0  0 

 1.289232e-04  -1.047611e-04  0 
 -1.047611e-04  -5.084171e-04  0 
 0  0  0 

 3.108954e-05  7.727104e-05  0 
 7.727104e-05  -3.242988e-04  0 
 0  0  0 

 8.829130e-05  -1.938905e-04  0 
 -1.938905e-04  -4.183786e-04  0 
 0  0  0 

 4.946445e-02  -7.719420e-02  0 
 -7.719420e-02  -4.290193e-01  0 
 0  0  0 

 -2.796342e-03  -9.103073e-03  0 
 -9.103073e-03  -2.389993e-01  0 
 0  0  0 

 -4.625948e-02  -1.555355e-01  0 
 -1.555355e-01  -1.971389e-01  0 
 0  0  0 

 1.416766e-01  5.246339e-03  0 
 5.246339e-03  -9.535478e-02  0 
 0  0  0 

 1.219539e-01  -2.348203e-02  0 
 -2.348203e-02  -2.141751e-02  0 
 0  0  0 

 -3.474199e-02  -1.217922e-01  0 
 -1.217922e-01  -5.939736e-02  0 
 0  0  0 

 -1.598506e-02  -1.099534e-01  0 
 -1.099534e-01  3.018748e-03  0 
 0  0  0 

 8.317760e-02  -1.718531e-01  0 
 -1.718531e-01  -9.256070e-01  0 
 0  0  0 

 3.327552e-02  -3.946458e-01  0 
 -3.946458e-01  -4.328029e-01  0 
 0  0  0 

 7.238698e-02  -9.490480e-02  0 
 -9.490480e-02  -3.290524e-01  0 
 0  0  0 

 -6.076768e-03  -5.646058e-02  0 
 -5.646058e-02  -1.416993e-02  0 
 0  0  0 

 -3.943168e-02  -2.738733e-02  0 
 -2.738733e-02  -7.395230e-02  0 
 0  0  0 

 -7.562067e-02  -2.801251e-01  0 
 -2.801251e-01  -3.372526e-01  0 
 0  0  0 

 -2.806377e-02  -3.761994e-02  0 
 -3.761994e-02  -3.922417e-02  0 
 0  0  0 

 -4.030464e-03  -1.422695e-01  0 
 -1.422695e-01  -4.519535e-02  0 
 0  0  0 

 -4.255318e-02  -1.581666e-01  0 
 -1.581666e-01  -4.038616e-03  0 
 0  0  0 

 -5.494118e-02  -1.265834e-01  0 
 -1.265834e-01  3.473421e-02  0 
 0  0  0 

 2.232855e-02  -1.212989e-01  0 
 -1.212989e-01  5.044426e-02  0 
 0  0  0 

