# vtk DataFile Version 3.1
this is an vtk file created by FEMAC
ASCII
DATASET UNSTRUCTURED_GRID
POINTS 31 FLOAT
4.000000 3.000000 0.000000
3.500000 3.000000 0.000000
3.750000 3.000000 0.000000
3.500000 4.000000 0.000000
4.000000 3.250000 0.000000
4.000000 3.500000 0.000000
4.250000 3.000000 0.000000
4.500000 3.000000 0.000000
3.447447 3.528256 0.000000
3.813081 3.669072 0.000000
3.813653 3.331392 0.000000
3.775000 3.500000 0.000000
3.660928 3.805846 0.000000
3.661595 3.194695 0.000000
3.413341 3.323754 0.000000
3.453287 3.717271 0.000000
3.616917 3.404183 0.000000
3.613486 3.598598 0.000000
3.845050 3.155217 0.000000
4.507893 2.661856 0.000000
4.761003 2.832250 0.000000
4.245757 2.832172 0.000000
4.675053 3.181152 0.000000
4.331361 3.185869 0.000000
4.500000 3.225000 0.000000
4.192042 3.332273 0.000000
4.300774 3.567728 0.000000
4.429311 3.390203 0.000000
4.649535 3.397124 0.000000
4.588195 3.700568 0.000000
4.154680 3.153628 0.000000
CELLS 42 168 
3 5 10  4
3 9 11  5
3 11 10  5
3 16 10 11
3 9 17 11
3 2 13  1
3 12 17  9
3 16 13 10
3 16 17  8
3 16 11 17
3 1 13 14
3 16  8 14
3 14 13 16
3 12  3 15
3 8 17 15
3 12 15 17
3 18  2  0
3 18  4 10
3 4 18  0
3 18 13  2
3 10 13 18
3 21  6  0
3 19 20  7
3 21  7  6
3 21 19  7
3 7 23  6
3 22 24  7
3 24 23  7
3 27 23 24
3 22 28 24
3 4 25  5
3 27 25 23
3 27 24 28
3 5 25 26
3 26 25 27
3 30  4  0
3 30  6 23
3 6 30  0
3 30 25  4
3 23 25 30
3 27 29 26
3 27 28 29
CELL_TYPES 42
5 5 5 5 5 5 5 5 5 5 5 5 5 5 5 5 5 5 5 5 5 5 5 5 5 5 5 5 5 5 5 5 5 5 5 5 5 5 5 5 5 5 
POINT_DATA 31
VECTORS displacement_ITER1 FLOAT
 1.046966e-02  -1.915794e-01  0 
 1.047636e-02  -1.793161e-01  0 
 1.047345e-02  -1.854392e-01  0 
 3.468699e-02  -1.793588e-01  0 
 1.657848e-02  -1.915592e-01  0 
 2.266080e-02  -1.915291e-01  0 
 1.046490e-02  -2.341699e-01  0 
 1.046649e-02  -2.767589e-01  0 
 2.333838e-02  -1.780770e-01  0 
 2.674431e-02  -1.869518e-01  0 
 1.856461e-02  -1.869937e-01  0 
 2.265983e-02  -1.860433e-01  0 
 3.003620e-02  -1.832453e-01  0 
 1.523120e-02  -1.832772e-01  0 
 1.836823e-02  -1.772265e-01  0 
 2.790877e-02  -1.782394e-01  0 
 2.033216e-02  -1.821942e-01  0 
 2.504788e-02  -1.821134e-01  0 
 1.426745e-02  -1.877682e-01  0 
 -4.711282e-02  -2.781168e-01  0 
 -1.809720e-02  -3.212558e-01  0 
 -1.811108e-02  -2.334531e-01  0 
 1.054181e-02  -2.801977e-01  0 
 1.733740e-02  -2.411226e-01  0 
 1.684225e-02  -2.620719e-01  0 
 2.083728e-02  -2.185896e-01  0 
 3.609632e-02  -2.391024e-01  0 
 2.596175e-02  -2.525230e-01  0 
 2.632462e-02  -2.737321e-01  0 
 4.049019e-02  -2.722289e-01  0 
 1.604919e-02  -2.149660e-01  0 
VECTORS displacement_ITER2 FLOAT
 9.167019e-03  -1.059670e-01  0 
 9.105701e-03  -8.987105e-02  0 
 9.118641e-03  -9.789887e-02  0 
 4.116189e-02  -8.976873e-02  0 
 1.710163e-02  -1.058994e-01  0 
 2.508801e-02  -1.058929e-01  0 
 9.244680e-03  -1.133269e-01  0 
 9.257895e-03  -1.205654e-01  0 
 2.600775e-02  -8.815798e-02  0 
 3.050380e-02  -9.990137e-02  0 
 1.970723e-02  -9.993644e-02  0 
 2.509562e-02  -9.868344e-02  0 
 3.490068e-02  -9.499641e-02  0 
 1.534967e-02  -9.506772e-02  0 
 1.947619e-02  -8.708086e-02  0 
 3.206881e-02  -8.831691e-02  0 
 2.203852e-02  -9.361348e-02  0 
 2.825340e-02  -9.348855e-02  0 
 1.409994e-02  -1.009697e-01  0 
 -4.489821e-04  -1.207573e-01  0 
 4.455546e-03  -1.280529e-01  0 
 4.398418e-03  -1.131888e-01  0 
 1.879111e-02  -1.423585e-01  0 
 1.441029e-02  -1.196581e-01  0 
 1.846779e-02  -1.301957e-01  0 
 1.904963e-02  -1.154478e-01  0 
 2.849806e-02  -1.256946e-01  0 
 2.322327e-02  -1.309206e-01  0 
 2.668186e-02  -1.439534e-01  0 
 3.412013e-02  -1.494495e-01  0 
 1.321255e-02  -1.121888e-01  0 
VECTORS displacement_ITER3 FLOAT
 -9.054817e-03  -3.759147e-02  0 
 -9.152775e-03  -2.684034e-02  0 
 -9.129114e-03  -3.220095e-02  0 
 1.237273e-02  -2.668615e-02  0 
 -3.813059e-03  -3.753788e-02  0 
 1.512342e-03  -3.755658e-02  0 
 -8.964281e-03  -3.869641e-02  0 
 -8.954031e-03  -3.968490e-02  0 
 2.117379e-03  -2.568130e-02  0 
 5.124517e-03  -3.357888e-02  0 
 -2.082233e-03  -3.357178e-02  0 
 1.507833e-03  -3.274179e-02  0 
 8.094200e-03  -3.027874e-02  0 
 -4.979640e-03  -3.032234e-02  0 
 -2.231663e-03  -2.497892e-02  0 
 6.183656e-03  -2.575027e-02  0 
 -5.315169e-04  -2.934390e-02  0 
 3.612175e-03  -2.925693e-02  0 
 -5.801297e-03  -3.426697e-02  0 
 -1.018799e-02  -3.969891e-02  0 
 -9.566303e-03  -4.064328e-02  0 
 -9.603806e-03  -3.866165e-02  0 
 -7.116490e-04  -5.572286e-02  0 
 -5.434788e-03  -4.164390e-02  0 
 -1.871554e-03  -4.809607e-02  0 
 -1.649902e-03  -3.991325e-02  0 
 8.770364e-03  -4.620615e-02  0 
 2.843675e-03  -4.890860e-02  0 
 6.662041e-03  -6.014334e-02  0 
 2.092732e-02  -6.476424e-02  0 
 -6.214371e-03  -3.899009e-02  0 
VECTORS displacement_ITER4 FLOAT
 -3.739322e-03  -1.307554e-02  0 
 -3.823617e-03  -8.825042e-03  0 
 -3.805028e-03  -1.093661e-02  0 
 4.579574e-03  -8.707684e-03  0 
 -1.757699e-03  -1.300248e-02  0 
 2.812014e-04  -1.300786e-02  0 
 -3.659962e-03  -1.617735e-02  0 
 -3.652719e-03  -1.917932e-02  0 
 5.084769e-04  -8.403212e-03  0 
 1.660108e-03  -1.149722e-02  0 
 -1.092443e-03  -1.147422e-02  0 
 2.741915e-04  -1.115635e-02  0 
 2.833200e-03  -1.019312e-02  0 
 -2.196313e-03  -1.021158e-02  0 
 -1.151889e-03  -8.136545e-03  0 
 2.089185e-03  -8.394637e-03  0 
 -5.043243e-04  -9.832550e-03  0 
 1.077551e-03  -9.796451e-03  0 
 -2.503675e-03  -1.176014e-02  0 
 -7.621063e-03  -1.929398e-02  0 
 -5.636451e-03  -2.228321e-02  0 
 -5.650758e-03  -1.611275e-02  0 
 -3.671140e-03  -1.775467e-02  0 
 -2.233671e-03  -1.626898e-02  0 
 -2.870987e-03  -1.672855e-02  0 
 -1.057087e-03  -1.444750e-02  0 
 -9.470069e-04  -1.258305e-02  0 
 -1.963939e-03  -1.483393e-02  0 
 -2.563237e-03  -1.627819e-02  0 
 -8.660416e-04  -1.378875e-02  0 
 -2.367604e-03  -1.461808e-02  0 
VECTORS displacement_ITER5 FLOAT
 -1.388533e-04  -5.214948e-03  0 
 -2.068697e-04  -4.492632e-03  0 
 -1.926646e-04  -4.838367e-03  0 
 1.045094e-03  -4.414397e-03  0 
 8.039608e-05  -5.128795e-03  0 
 3.339186e-04  -5.130298e-03  0 
 -7.060347e-05  -7.118875e-03  0 
 -7.190121e-05  -8.921544e-03  0 
 3.540345e-04  -4.475570e-03  0 
 4.990533e-04  -4.957702e-03  0 
 1.656447e-04  -4.925896e-03  0 
 3.255969e-04  -4.888541e-03  0 
 6.919502e-04  -4.742260e-03  0 
 3.421976e-05  -4.739927e-03  0 
 1.495246e-04  -4.443178e-03  0 
 5.870435e-04  -4.433542e-03  0 
 2.292297e-04  -4.691019e-03  0 
 4.233030e-04  -4.686094e-03  0 
 7.005303e-06  -4.985907e-03  0 
 -2.414245e-03  -9.019484e-03  0 
 -1.257628e-03  -1.078532e-02  0 
 -1.258294e-03  -7.081605e-03  0 
 -4.118354e-04  -8.032580e-03  0 
 2.363200e-04  -6.671139e-03  0 
 -4.424006e-05  -7.280556e-03  0 
 6.926761e-04  -5.211834e-03  0 
 2.387629e-03  -4.954290e-03  0 
 1.000515e-03  -6.033217e-03  0 
 1.229812e-03  -8.250562e-03  0 
 5.622379e-03  -7.293876e-03  0 
 2.711565e-04  -5.790407e-03  0 
VECTORS displacement_ITER6 FLOAT
 -4.609763e-04  -5.105570e-03  0 
 -5.258276e-04  -3.954089e-03  0 
 -5.181785e-04  -4.520887e-03  0 
 1.900204e-03  -3.794550e-03  0 
 -7.598376e-06  -5.063952e-03  0 
 5.123051e-04  -5.110589e-03  0 
 -3.820648e-04  -5.642158e-03  0 
 -3.718736e-04  -6.094574e-03  0 
 5.565742e-04  -3.818598e-03  0 
 8.739166e-04  -4.753903e-03  0 
 1.505502e-04  -4.680000e-03  0 
 4.941692e-04  -4.617292e-03  0 
 1.262825e-03  -4.347091e-03  0 
 -1.177684e-04  -4.335855e-03  0 
 1.295850e-04  -3.781295e-03  0 
 1.033048e-03  -3.750119e-03  0 
 2.871152e-04  -4.237436e-03  0 
 7.051470e-04  -4.225524e-03  0 
 -1.810460e-04  -4.757369e-03  0 
 -9.122746e-04  -6.138101e-03  0 
 -6.595947e-04  -6.579196e-03  0 
 -6.591222e-04  -5.617198e-03  0 
 -1.315357e-03  -6.617848e-03  0 
 -4.295550e-04  -5.647604e-03  0 
 -8.303669e-04  -5.769501e-03  0 
 1.662724e-04  -5.026009e-03  0 
 8.223001e-04  -4.441522e-03  0 
 -8.805660e-05  -5.112785e-03  0 
 -2.223325e-05  -6.812605e-03  0 
 2.936711e-03  -6.363026e-03  0 
 -2.393084e-04  -5.347654e-03  0 
VECTORS displacement_ITER7 FLOAT
 2.314157e-04  -4.349120e-03  0 
 1.591685e-04  -3.412400e-03  0 
 1.694637e-04  -3.856759e-03  0 
 1.942356e-03  -3.304453e-03  0 
 5.542763e-04  -4.272192e-03  0 
 9.396753e-04  -4.302801e-03  0 
 3.251334e-04  -4.870909e-03  0 
 3.534329e-04  -5.330193e-03  0 
 9.841878e-04  -3.294197e-03  0 
 1.218173e-03  -4.010117e-03  0 
 6.752337e-04  -3.977566e-03  0 
 9.343476e-04  -3.914503e-03  0 
 1.507678e-03  -3.691727e-03  0 
 4.799016e-04  -3.714585e-03  0 
 6.741054e-04  -3.265992e-03  0 
 1.333360e-03  -3.244966e-03  0 
 7.850437e-04  -3.622045e-03  0 
 1.094115e-03  -3.605217e-03  0 
 4.374247e-04  -4.052336e-03  0 
 -2.296830e-04  -5.362649e-03  0 
 4.833080e-05  -5.815016e-03  0 
 4.765150e-05  -4.831575e-03  0 
 -4.995053e-04  -5.916274e-03  0 
 2.401311e-04  -5.065142e-03  0 
 3.267847e-05  -5.355680e-03  0 
 6.017899e-04  -4.727929e-03  0 
 1.176065e-03  -5.288583e-03  0 
 6.998602e-04  -5.136028e-03  0 
 3.337545e-04  -5.682371e-03  0 
 1.451090e-03  -4.655805e-03  0 
 3.432518e-04  -4.722860e-03  0 
VECTORS displacement_ITER8 FLOAT
 2.312518e-04  -3.988084e-03  0 
 1.402551e-04  -3.206064e-03  0 
 1.678243e-04  -3.575571e-03  0 
 1.353381e-03  -3.193013e-03  0 
 4.622159e-04  -3.885733e-03  0 
 7.335596e-04  -3.878761e-03  0 
 2.913962e-04  -4.487430e-03  0 
 3.122453e-04  -4.951943e-03  0 
 7.643333e-04  -3.176964e-03  0 
 9.061205e-04  -3.670601e-03  0 
 5.574686e-04  -3.664644e-03  0 
 7.327147e-04  -3.607218e-03  0 
 1.080227e-03  -3.448597e-03  0 
 4.179320e-04  -3.473193e-03  0 
 5.678742e-04  -3.124155e-03  0 
 9.697312e-04  -3.158941e-03  0 
 6.414353e-04  -3.398131e-03  0 
 8.317349e-04  -3.390047e-03  0 
 3.875059e-04  -3.737157e-03  0 
 -2.591216e-04  -4.955204e-03  0 
 2.157573e-05  -5.413699e-03  0 
 -1.085073e-06  -4.457745e-03  0 
 3.939484e-04  -5.426093e-03  0 
 4.338967e-04  -4.601063e-03  0 
 5.153853e-04  -5.004550e-03  0 
 6.043149e-04  -4.302281e-03  0 
 1.130797e-03  -4.806350e-03  0 
 8.609887e-04  -4.861450e-03  0 
 8.027420e-04  -5.291419e-03  0 
 1.396257e-03  -4.832219e-03  0 
 3.860170e-04  -4.259016e-03  0 
VECTORS displacement_ITER9 FLOAT
 1.722624e-04  -3.949530e-03  0 
 8.720337e-05  -3.085522e-03  0 
 1.113033e-04  -3.487748e-03  0 
 1.452024e-03  -3.085605e-03  0 
 4.528668e-04  -3.845725e-03  0 
 7.788738e-04  -3.834124e-03  0 
 2.333104e-04  -4.421881e-03  0 
 2.445193e-04  -4.824808e-03  0 
 8.140410e-04  -3.020654e-03  0 
 9.848781e-04  -3.586983e-03  0 
 5.663762e-04  -3.585568e-03  0 
 7.786016e-04  -3.516199e-03  0 
 1.162460e-03  -3.350218e-03  0 
 3.964305e-04  -3.366341e-03  0 
 5.806340e-04  -2.952315e-03  0 
 1.038054e-03  -3.020200e-03  0 
 6.695278e-04  -3.275050e-03  0 
 8.942685e-04  -3.269069e-03  0 
 3.591242e-04  -3.665951e-03  0 
 -2.375232e-04  -4.828669e-03  0 
 -3.841494e-06  -5.213113e-03  0 
 -2.061489e-05  -4.401175e-03  0 
 4.660365e-04  -5.095038e-03  0 
 4.217466e-04  -4.533670e-03  0 
 5.242171e-04  -4.862941e-03  0 
 5.728677e-04  -4.315778e-03  0 
 1.007489e-03  -4.834330e-03  0 
 7.984417e-04  -4.811524e-03  0 
 7.798991e-04  -5.078783e-03  0 
 1.208716e-03  -4.919192e-03  0 
 3.537350e-04  -4.226225e-03  0 
VECTORS displacement_ITER10 FLOAT
 1.771833e-04  -3.931984e-03  0 
 9.755121e-05  -3.066927e-03  0 
 1.185473e-04  -3.466062e-03  0 
 1.458946e-03  -3.078501e-03  0 
 4.618098e-04  -3.826538e-03  0 
 7.935138e-04  -3.815725e-03  0 
 2.360174e-04  -4.380132e-03  0 
 2.516804e-04  -4.783900e-03  0 
 8.289734e-04  -2.986600e-03  0 
 1.004431e-03  -3.567049e-03  0 
 5.766027e-04  -3.562890e-03  0 
 7.924658e-04  -3.492595e-03  0 
 1.181609e-03  -3.329820e-03  0 
 4.045943e-04  -3.342061e-03  0 
 5.931527e-04  -2.920095e-03  0 
 1.050636e-03  -2.990337e-03  0 
 6.817333e-04  -3.247170e-03  0 
 9.096819e-04  -3.240484e-03  0 
 3.668947e-04  -3.644219e-03  0 
 -2.427922e-04  -4.796260e-03  0 
 -8.470647e-06  -5.205223e-03  0 
 -1.570413e-05  -4.355039e-03  0 
 3.721722e-04  -5.004995e-03  0 
 3.971045e-04  -4.477000e-03  0 
 4.351643e-04  -4.745921e-03  0 
 5.780810e-04  -4.213058e-03  0 
 9.486943e-04  -4.478934e-03  0 
 6.885831e-04  -4.619893e-03  0 
 7.151547e-04  -5.045677e-03  0 
 1.345752e-03  -4.972280e-03  0 
 3.544435e-04  -4.180458e-03  0 
VECTORS displacement_ITER11 FLOAT
 1.829688e-04  -3.914684e-03  0 
 1.044064e-04  -3.068813e-03  0 
 1.248004e-04  -3.457545e-03  0 
 1.470105e-03  -3.071563e-03  0 
 4.582225e-04  -3.808300e-03  0 
 7.812018e-04  -3.797900e-03  0 
 2.411166e-04  -4.366105e-03  0 
 2.563288e-04  -4.768875e-03  0 
 8.209760e-04  -2.979889e-03  0 
 9.946063e-04  -3.559268e-03  0 
 5.699399e-04  -3.551323e-03  0 
 7.802923e-04  -3.482376e-03  0 
 1.174839e-03  -3.326083e-03  0 
 4.034772e-04  -3.336499e-03  0 
 5.875550e-04  -2.924516e-03  0 
 1.038092e-03  -2.975559e-03  0 
 6.723172e-04  -3.241997e-03  0 
 8.971719e-04  -3.230503e-03  0 
 3.671326e-04  -3.631889e-03  0 
 -2.382442e-04  -4.777893e-03  0 
 -1.346118e-06  -5.193025e-03  0 
 -1.148349e-05  -4.342022e-03  0 
 4.459810e-04  -5.008078e-03  0 
 4.148928e-04  -4.464758e-03  0 
 4.805533e-04  -4.749829e-03  0 
 5.804253e-04  -4.201371e-03  0 
 9.499689e-04  -4.469526e-03  0 
 7.027681e-04  -4.642785e-03  0 
 7.502588e-04  -5.037927e-03  0 
 1.272474e-03  -5.022672e-03  0 
 3.610742e-04  -4.161849e-03  0 
VECTORS displacement_ITER12 FLOAT
 1.809542e-04  -3.915229e-03  0 
 1.026451e-04  -3.067606e-03  0 
 1.228172e-04  -3.457206e-03  0 
 1.468368e-03  -3.073833e-03  0 
 4.573062e-04  -3.809125e-03  0 
 7.811571e-04  -3.798428e-03  0 
 2.391577e-04  -4.367061e-03  0 
 2.542335e-04  -4.769832e-03  0 
 8.223955e-04  -2.977473e-03  0 
 9.953581e-04  -3.559771e-03  0 
 5.693473e-04  -3.551591e-03  0 
 7.802999e-04  -3.482912e-03  0 
 1.175487e-03  -3.325561e-03  0 
 4.020195e-04  -3.335810e-03  0 
 5.858284e-04  -2.923405e-03  0 
 1.038409e-03  -2.976556e-03  0 
 6.716032e-04  -3.241910e-03  0 
 8.985245e-04  -3.229746e-03  0 
 3.656806e-04  -3.631972e-03  0 
 -2.414388e-04  -4.779090e-03  0 
 -4.074813e-06  -5.194974e-03  0 
 -1.342455e-05  -4.343067e-03  0 
 4.499269e-04  -5.045009e-03  0 
 4.184377e-04  -4.465380e-03  0 
 4.920539e-04  -4.758837e-03  0 
 5.849483e-04  -4.199841e-03  0 
 9.618978e-04  -4.468088e-03  0 
 7.163102e-04  -4.652650e-03  0 
 7.661209e-04  -5.035175e-03  0 
 1.246364e-03  -5.009017e-03  0 
 3.618636e-04  -4.160746e-03  0 
VECTORS displacement_ITER13 FLOAT
 1.810532e-04  -3.915448e-03  0 
 1.027721e-04  -3.067775e-03  0 
 1.229262e-04  -3.457391e-03  0 
 1.468186e-03  -3.073831e-03  0 
 4.574262e-04  -3.809331e-03  0 
 7.813147e-04  -3.798638e-03  0 
 2.392672e-04  -4.367009e-03  0 
 2.543711e-04  -4.769505e-03  0 
 8.226444e-04  -2.977479e-03  0 
 9.954320e-04  -3.559844e-03  0 
 5.694725e-04  -3.551781e-03  0 
 7.804590e-04  -3.483119e-03  0 
 1.175700e-03  -3.325546e-03  0 
 4.021342e-04  -3.335984e-03  0 
 5.858917e-04  -2.923655e-03  0 
 1.038727e-03  -2.976760e-03  0 
 6.716973e-04  -3.242113e-03  0 
 8.987845e-04  -3.229897e-03  0 
 3.657954e-04  -3.632164e-03  0 
 -2.411325e-04  -4.778738e-03  0 
 -3.773105e-06  -5.194406e-03  0 
 -1.314580e-05  -4.343007e-03  0 
 4.494889e-04  -5.040486e-03  0 
 4.177978e-04  -4.465218e-03  0 
 4.907460e-04  -4.757650e-03  0 
 5.848303e-04  -4.198813e-03  0 
 9.629969e-04  -4.464567e-03  0 
 7.147749e-04  -4.652110e-03  0 
 7.652496e-04  -5.035819e-03  0 
 1.247298e-03  -5.013825e-03  0 
 3.617784e-04  -4.160674e-03  0 
VECTORS displacement_ITER14 FLOAT
 1.810622e-04  -3.915408e-03  0 
 1.027689e-04  -3.067772e-03  0 
 1.229324e-04  -3.457375e-03  0 
 1.468216e-03  -3.073777e-03  0 
 4.574079e-04  -3.809286e-03  0 
 7.812875e-04  -3.798605e-03  0 
 2.392765e-04  -4.366995e-03  0 
 2.543812e-04  -4.769519e-03  0 
 8.225801e-04  -2.977453e-03  0 
 9.953795e-04  -3.559790e-03  0 
 5.694463e-04  -3.551748e-03  0 
 7.804315e-04  -3.483086e-03  0 
 1.175642e-03  -3.325602e-03  0 
 4.021333e-04  -3.335977e-03  0 
 5.858970e-04  -2.923678e-03  0 
 1.038665e-03  -2.976787e-03  0 
 6.716649e-04  -3.242085e-03  0 
 8.987383e-04  -3.229901e-03  0 
 3.657911e-04  -3.632138e-03  0 
 -2.411593e-04  -4.778755e-03  0 
 -3.785848e-06  -5.194449e-03  0 
 -1.315466e-05  -4.342992e-03  0 
 4.496578e-04  -5.039546e-03  0 
 4.176585e-04  -4.465286e-03  0 
 4.906150e-04  -4.757766e-03  0 
 5.847928e-04  -4.198700e-03  0 
 9.635419e-04  -4.464559e-03  0 
 7.147525e-04  -4.652540e-03  0 
 7.650557e-04  -5.036292e-03  0 
 1.246734e-03  -5.014141e-03  0 
 3.617256e-04  -4.160655e-03  0 
CELL_DATA 42
TENSORS element_stresses FLOAT
 -2.480136e-02  -5.219877e-02  0 
 -5.219877e-02  3.528384e-02  0 
 0  0  0 

 -4.125677e-02  -1.014034e-01  0 
 -1.014034e-01  -1.502032e-01  0 
 0  0  0 

 3.245014e-02  -1.154643e-01  0 
 -1.154643e-01  9.548650e-02  0 
 0  0  0 

 -5.123598e-02  -2.446813e-01  0 
 -2.446813e-01  3.532090e-02  0 
 0  0  0 

 1.298013e-02  -2.760451e-01  0 
 -2.760451e-01  -8.454819e-02  0 
 0  0  0 

 6.090665e-02  -6.749727e-02  0 
 -6.749727e-02  -6.582461e-02  0 
 0  0  0 

 -1.506075e-02  -2.213377e-01  0 
 -2.213377e-01  -9.527563e-02  0 
 0  0  0 

 -1.166724e-02  -1.940490e-01  0 
 -1.940490e-01  1.186414e-01  0 
 0  0  0 

 -2.768550e-02  -2.831846e-01  0 
 -2.831846e-01  2.726866e-02  0 
 0  0  0 

 -9.973016e-03  -2.910268e-01  0 
 -2.910268e-01  3.239748e-02  0 
 0  0  0 

 4.559159e-02  -1.208825e-01  0 
 -1.208825e-01  1.429006e-02  0 
 0  0  0 

 -4.302582e-02  -3.072311e-01  0 
 -3.072311e-01  -1.515762e-02  0 
 0  0  0 

 -5.333556e-02  -2.587127e-01  0 
 -2.587127e-01  8.971308e-02  0 
 0  0  0 

 -9.531030e-03  -1.019945e-01  0 
 -1.019945e-01  -7.331665e-02  0 
 0  0  0 

 -1.168532e-02  -3.062104e-01  0 
 -3.062104e-01  4.765850e-02  0 
 0  0  0 

 8.106891e-02  -2.538838e-01  0 
 -2.538838e-01  -6.125391e-02  0 
 0  0  0 

 2.542005e-01  -3.152942e-01  0 
 -3.152942e-01  7.227063e-02  0 
 0  0  0 

 -3.971353e-02  -1.116893e-01  0 
 -1.116893e-01  2.158251e-01  0 
 0  0  0 

 4.665094e-02  -2.288730e-01  0 
 -2.288730e-01  4.384832e-01  0 
 0  0  0 

 9.456188e-02  -1.160174e-01  0 
 -1.160174e-01  -9.298820e-02  0 
 0  0  0 

 1.156903e-01  -3.163464e-01  0 
 -3.163464e-01  2.100408e-01  0 
 0  0  0 

 2.237932e-01  -2.370210e-01  0 
 -2.370210e-01  -3.021356e-02  0 
 0  0  0 

 -5.630006e-02  -1.312946e-01  0 
 -1.312946e-01  -2.774154e-02  0 
 0  0  0 

 3.266438e-02  -8.270358e-02  0 
 -8.270358e-02  -9.251421e-02  0 
 0  0  0 

 8.804969e-02  -1.557748e-01  0 
 -1.557748e-01  1.474887e-02  0 
 0  0  0 

 1.244072e-04  -5.206351e-04  0 
 -5.206351e-04  2.132951e-04  0 
 0  0  0 

 4.911264e-05  -4.205178e-04  0 
 -4.205178e-04  6.697193e-05  0 
 0  0  0 

 2.249092e-04  -5.358031e-04  0 
 -5.358031e-04  1.197109e-04  0 
 0  0  0 

 8.622374e-05  -2.381196e-04  0 
 -2.381196e-04  -6.980000e-05  0 
 0  0  0 

 8.979199e-05  -1.372889e-04  0 
 -1.372889e-04  -1.535238e-04  0 
 0  0  0 

 1.331021e-04  -5.773384e-04  0 
 -5.773384e-04  8.265489e-05  0 
 0  0  0 

 2.400630e-04  -4.335172e-04  0 
 -4.335172e-04  7.258358e-05  0 
 0  0  0 

 1.660895e-04  -2.338464e-04  0 
 -2.338464e-04  -5.740521e-05  0 
 0  0  0 

 2.596804e-04  -5.418210e-04  0 
 -5.418210e-04  -4.112180e-05  0 
 0  0  0 

 1.006260e-04  -2.440073e-04  0 
 -2.440073e-04  -2.468696e-04  0 
 0  0  0 

 2.169889e-04  -6.936343e-04  0 
 -6.936343e-04  4.895846e-04  0 
 0  0  0 

 2.498721e-04  -6.742843e-04  0 
 -6.742843e-04  3.204902e-04  0 
 0  0  0 

 3.291905e-04  -6.652487e-04  0 
 -6.652487e-04  3.211107e-04  0 
 0  0  0 

 2.314059e-04  -6.984030e-04  0 
 -6.984030e-04  3.013159e-04  0 
 0  0  0 

 1.519603e-04  -4.021718e-04  0 
 -4.021718e-04  1.990761e-04  0 
 0  0  0 

 1.975327e-04  -1.652375e-04  0 
 -1.652375e-04  -1.846760e-04  0 
 0  0  0 

 1.034658e-04  -8.507457e-05  0 
 -8.507457e-05  -2.464495e-04  0 
 0  0  0 

TENSORS element_stresses FLOAT
 -2.480136e-02  -5.219877e-02  0 
 -5.219877e-02  3.528384e-02  0 
 0  0  0 

 -4.125677e-02  -1.014034e-01  0 
 -1.014034e-01  -1.502032e-01  0 
 0  0  0 

 3.245014e-02  -1.154643e-01  0 
 -1.154643e-01  9.548650e-02  0 
 0  0  0 

 -5.123598e-02  -2.446813e-01  0 
 -2.446813e-01  3.532090e-02  0 
 0  0  0 

 1.298013e-02  -2.760451e-01  0 
 -2.760451e-01  -8.454819e-02  0 
 0  0  0 

 6.090665e-02  -6.749727e-02  0 
 -6.749727e-02  -6.582461e-02  0 
 0  0  0 

 -1.506075e-02  -2.213377e-01  0 
 -2.213377e-01  -9.527563e-02  0 
 0  0  0 

 -1.166724e-02  -1.940490e-01  0 
 -1.940490e-01  1.186414e-01  0 
 0  0  0 

 -2.768550e-02  -2.831846e-01  0 
 -2.831846e-01  2.726866e-02  0 
 0  0  0 

 -9.973016e-03  -2.910268e-01  0 
 -2.910268e-01  3.239748e-02  0 
 0  0  0 

 4.559159e-02  -1.208825e-01  0 
 -1.208825e-01  1.429006e-02  0 
 0  0  0 

 -4.302582e-02  -3.072311e-01  0 
 -3.072311e-01  -1.515762e-02  0 
 0  0  0 

 -5.333556e-02  -2.587127e-01  0 
 -2.587127e-01  8.971308e-02  0 
 0  0  0 

 -9.531030e-03  -1.019945e-01  0 
 -1.019945e-01  -7.331665e-02  0 
 0  0  0 

 -1.168532e-02  -3.062104e-01  0 
 -3.062104e-01  4.765850e-02  0 
 0  0  0 

 8.106891e-02  -2.538838e-01  0 
 -2.538838e-01  -6.125391e-02  0 
 0  0  0 

 2.542005e-01  -3.152942e-01  0 
 -3.152942e-01  7.227063e-02  0 
 0  0  0 

 -3.971353e-02  -1.116893e-01  0 
 -1.116893e-01  2.158251e-01  0 
 0  0  0 

 4.665094e-02  -2.288730e-01  0 
 -2.288730e-01  4.384832e-01  0 
 0  0  0 

 9.456188e-02  -1.160174e-01  0 
 -1.160174e-01  -9.298820e-02  0 
 0  0  0 

 1.156903e-01  -3.163464e-01  0 
 -3.163464e-01  2.100408e-01  0 
 0  0  0 

 2.237932e-01  -2.370210e-01  0 
 -2.370210e-01  -3.021356e-02  0 
 0  0  0 

 -5.630006e-02  -1.312946e-01  0 
 -1.312946e-01  -2.774154e-02  0 
 0  0  0 

 3.266438e-02  -8.270358e-02  0 
 -8.270358e-02  -9.251421e-02  0 
 0  0  0 

 8.804969e-02  -1.557748e-01  0 
 -1.557748e-01  1.474887e-02  0 
 0  0  0 

 1.244072e-04  -5.206351e-04  0 
 -5.206351e-04  2.132951e-04  0 
 0  0  0 

 4.911264e-05  -4.205178e-04  0 
 -4.205178e-04  6.697193e-05  0 
 0  0  0 

 2.249092e-04  -5.358031e-04  0 
 -5.358031e-04  1.197109e-04  0 
 0  0  0 

 8.622374e-05  -2.381196e-04  0 
 -2.381196e-04  -6.980000e-05  0 
 0  0  0 

 8.979199e-05  -1.372889e-04  0 
 -1.372889e-04  -1.535238e-04  0 
 0  0  0 

 1.331021e-04  -5.773384e-04  0 
 -5.773384e-04  8.265489e-05  0 
 0  0  0 

 2.400630e-04  -4.335172e-04  0 
 -4.335172e-04  7.258358e-05  0 
 0  0  0 

 1.660895e-04  -2.338464e-04  0 
 -2.338464e-04  -5.740521e-05  0 
 0  0  0 

 2.596804e-04  -5.418210e-04  0 
 -5.418210e-04  -4.112180e-05  0 
 0  0  0 

 1.006260e-04  -2.440073e-04  0 
 -2.440073e-04  -2.468696e-04  0 
 0  0  0 

 2.169889e-04  -6.936343e-04  0 
 -6.936343e-04  4.895846e-04  0 
 0  0  0 

 2.498721e-04  -6.742843e-04  0 
 -6.742843e-04  3.204902e-04  0 
 0  0  0 

 3.291905e-04  -6.652487e-04  0 
 -6.652487e-04  3.211107e-04  0 
 0  0  0 

 2.314059e-04  -6.984030e-04  0 
 -6.984030e-04  3.013159e-04  0 
 0  0  0 

 1.519603e-04  -4.021718e-04  0 
 -4.021718e-04  1.990761e-04  0 
 0  0  0 

 1.975327e-04  -1.652375e-04  0 
 -1.652375e-04  -1.846760e-04  0 
 0  0  0 

 1.034658e-04  -8.507457e-05  0 
 -8.507457e-05  -2.464495e-04  0 
 0  0  0 

