# vtk DataFile Version 3.1
this is an vtk file created by FEMAC
ASCII
DATASET UNSTRUCTURED_GRID
POINTS 32 FLOAT
5.000000 3.000000 0.000000
6.000000 3.000000 0.000000
6.000000 4.000000 0.000000
5.000000 2.750000 0.000000
5.250000 3.000000 0.000000
5.500000 3.000000 0.000000
5.750000 3.000000 0.000000
6.000000 2.500000 0.000000
6.000000 2.750000 0.000000
5.500000 4.000000 0.000000
5.750000 4.000000 0.000000
6.000000 3.250000 0.000000
6.000000 3.500000 0.000000
6.000000 3.750000 0.000000
4.761003 2.832250 0.000000
5.808128 2.581646 0.000000
5.507893 2.661856 0.000000
5.761003 2.832250 0.000000
5.245757 2.832172 0.000000
5.528256 3.447447 0.000000
5.669072 3.813081 0.000000
5.805000 3.255000 0.000000
5.195000 3.255000 0.000000
5.500000 3.775000 0.000000
5.805846 3.660928 0.000000
5.378219 3.169567 0.000000
5.565925 3.242859 0.000000
5.323754 3.413341 0.000000
5.717271 3.453287 0.000000
5.404183 3.616917 0.000000
5.598598 3.613486 0.000000
5.844984 3.844802 0.000000
CELLS 43 172 
3 14  3  0
3 8 15  7
3 6 17  1
3 17  8  1
3 3 18  0
3 18  4  0
3 17 15  8
3 5 17  6
3 16 17  5
3 16 15 17
3 18  5  4
3 18 16  5
3 9 20 10
3 12 21 11
3 23 20  9
3 30 20 23
3 25  4  5
3 6 26  5
3 13 24 12
3 30 24 20
3 28 26 21
3 25 27 22
3 30 29 19
3 23 29 30
3 21 26  6
3 25 22  4
3 19 29 27
3 12 28 21
3 12 24 28
3 30 19 28
3 28 24 30
3 1 21  6
3 1 11 21
3 0  4 22
3 10 31  2
3 31 13  2
3 31 10 20
3 31 24 13
3 20 24 31
3 25  5 26
3 19 27 26
3 28 19 26
3 25 26 27
CELL_TYPES 43
5 5 5 5 5 5 5 5 5 5 5 5 5 5 5 5 5 5 5 5 5 5 5 5 5 5 5 5 5 5 5 5 5 5 5 5 5 5 5 5 5 5 5 
POINT_DATA 32
VECTORS displacement_ITER1 FLOAT
 1.688380e-04  -3.223149e-01  0 
 1.972319e-04  -4.016593e-01  0 
 7.925411e-02  -4.016092e-01  0 
 -2.822784e-02  -3.222301e-01  0 
 1.714071e-04  -3.422198e-01  0 
 1.910825e-04  -3.620617e-01  0 
 1.987119e-04  -3.818633e-01  0 
 -4.381643e-03  -4.072347e-01  0 
 -7.224760e-03  -4.060358e-01  0 
 7.924279e-02  -3.621015e-01  0 
 7.925386e-02  -3.818524e-01  0 
 1.998166e-02  -4.016480e-01  0 
 3.975914e-02  -4.016299e-01  0 
 5.951505e-02  -4.016112e-01  0 
 -1.891677e-02  -2.950557e-01  0 
 -8.275218e-03  -3.953135e-01  0 
 -5.821342e-03  -3.626462e-01  0 
 -2.583156e-03  -3.845518e-01  0 
 -9.168281e-03  -3.439158e-01  0 
 3.561307e-02  -3.642990e-01  0 
 6.449692e-02  -3.754498e-01  0 
 2.038275e-02  -3.862115e-01  0 
 2.039424e-02  -3.378759e-01  0 
 6.148698e-02  -3.620874e-01  0 
 5.248219e-02  -3.862631e-01  0 
 1.362461e-02  -3.524100e-01  0 
 1.942580e-02  -3.672833e-01  0 
 3.291858e-02  -3.481031e-01  0 
 3.607152e-02  -3.792602e-01  0 
 4.900194e-02  -3.544933e-01  0 
 4.873505e-02  -3.698711e-01  0 
 6.700165e-02  -3.893572e-01  0 
VECTORS displacement_ITER2 FLOAT
 5.547367e-03  -1.449855e-01  0 
 5.554096e-03  -1.887516e-01  0 
 4.899439e-02  -1.886733e-01  0 
 8.716312e-03  -1.449243e-01  0 
 5.547599e-03  -1.559809e-01  0 
 5.560923e-03  -1.669237e-01  0 
 5.560676e-03  -1.778384e-01  0 
 -2.081883e-02  -2.268878e-01  0 
 -4.781831e-03  -2.087380e-01  0 
 4.897039e-02  -1.670051e-01  0 
 4.898947e-02  -1.778311e-01  0 
 1.644649e-02  -1.887251e-01  0 
 2.732566e-02  -1.886950e-01  0 
 3.816965e-02  -1.886718e-01  0 
 7.660793e-03  -1.479143e-01  0 
 -9.990742e-03  -1.982416e-01  0 
 3.530483e-03  -1.661992e-01  0 
 5.562253e-03  -1.814090e-01  0 
 5.137679e-03  -1.536568e-01  0 
 2.504949e-02  -1.681637e-01  0 
 4.090016e-02  -1.743103e-01  0 
 1.667479e-02  -1.802249e-01  0 
 1.668218e-02  -1.536007e-01  0 
 3.924420e-02  -1.669776e-01  0 
 3.431319e-02  -1.802445e-01  0 
 1.295849e-02  -1.616072e-01  0 
 1.615141e-02  -1.698006e-01  0 
 2.356747e-02  -1.592491e-01  0 
 2.530278e-02  -1.763948e-01  0 
 3.239380e-02  -1.627854e-01  0 
 3.225501e-02  -1.712373e-01  0 
 4.227477e-02  -1.819452e-01  0 
VECTORS displacement_ITER3 FLOAT
 -3.116076e-03  -6.139761e-02  0 
 -3.107026e-03  -8.254383e-02  0 
 1.769921e-02  -8.248150e-02  0 
 -1.742281e-02  -6.131552e-02  0 
 -3.120068e-03  -6.676770e-02  0 
 -3.103558e-03  -7.205391e-02  0 
 -3.101629e-03  -7.729762e-02  0 
 -1.224739e-02  -1.000380e-01  0 
 -6.402637e-03  -9.563127e-02  0 
 1.764548e-02  -7.210819e-02  0 
 1.768380e-02  -7.729548e-02  0 
 2.120824e-03  -8.251774e-02  0 
 7.333211e-03  -8.248630e-02  0 
 1.251983e-02  -8.247080e-02  0 
 -1.273438e-02  -4.758807e-02  0 
 -9.543606e-03  -8.629610e-02  0 
 -3.039662e-03  -6.638581e-02  0 
 -9.245034e-04  -7.866077e-02  0 
 -7.077483e-03  -6.726475e-02  0 
 6.255247e-03  -7.264345e-02  0 
 1.381611e-02  -7.558982e-02  0 
 2.236158e-03  -7.843747e-02  0 
 2.257761e-03  -6.563167e-02  0 
 1.302427e-02  -7.208751e-02  0 
 1.067568e-02  -7.843115e-02  0 
 4.604853e-04  -6.949412e-02  0 
 1.989968e-03  -7.343328e-02  0 
 5.551104e-03  -6.836356e-02  0 
 6.371875e-03  -7.659207e-02  0 
 9.760078e-03  -7.007347e-02  0 
 9.695402e-03  -7.411809e-02  0 
 1.448014e-02  -7.925154e-02  0 
VECTORS displacement_ITER4 FLOAT
 -5.864390e-03  -2.158893e-02  0 
 -5.899538e-03  -2.882849e-02  0 
 1.159652e-03  -2.884014e-02  0 
 -4.986072e-03  -2.156047e-02  0 
 -5.881758e-03  -2.344756e-02  0 
 -5.884563e-03  -2.525351e-02  0 
 -5.891745e-03  -2.703861e-02  0 
 -1.348759e-02  -5.336525e-02  0 
 -7.537080e-03  -4.470131e-02  0 
 1.095373e-03  -2.525670e-02  0 
 1.134108e-03  -2.704189e-02  0 
 -4.128059e-03  -2.880544e-02  0 
 -2.370395e-03  -2.878478e-02  0 
 -6.180855e-04  -2.879565e-02  0 
 -5.247100e-03  -2.234128e-02  0 
 -8.849669e-03  -3.818473e-02  0 
 -1.080582e-03  -2.221127e-02  0 
 -1.914207e-03  -2.898934e-02  0 
 -4.647333e-03  -2.312018e-02  0 
 -2.727396e-03  -2.544473e-02  0 
 -1.914855e-04  -2.644245e-02  0 
 -4.084245e-03  -2.741713e-02  0 
 -4.061848e-03  -2.305976e-02  0 
 -4.595943e-04  -2.525609e-02  0 
 -1.247416e-03  -2.740983e-02  0 
 -4.673060e-03  -2.437635e-02  0 
 -4.161799e-03  -2.571492e-02  0 
 -2.960234e-03  -2.399378e-02  0 
 -2.690841e-03  -2.678544e-02  0 
 -1.554156e-03  -2.457533e-02  0 
 -1.575550e-03  -2.594405e-02  0 
 4.197986e-05  -2.770156e-02  0 
VECTORS displacement_ITER5 FLOAT
 -1.819247e-03  -9.311053e-03  0 
 -1.856026e-03  -1.457171e-02  0 
 3.162012e-03  -1.453621e-02  0 
 -2.119147e-03  -9.300333e-03  0 
 -1.837781e-03  -1.068072e-02  0 
 -1.840143e-03  -1.199196e-02  0 
 -1.847245e-03  -1.327863e-02  0 
 -4.660576e-03  -3.326108e-02  0 
 -3.400827e-03  -2.882376e-02  0 
 3.091515e-03  -1.202289e-02  0 
 3.133380e-03  -1.327178e-02  0 
 -5.818203e-04  -1.454301e-02  0 
 6.757884e-04  -1.451224e-02  0 
 1.912046e-03  -1.450457e-02  0 
 -1.976955e-03  -8.934949e-03  0 
 -3.296306e-03  -2.366686e-02  0 
 2.286615e-03  -1.242165e-02  0 
 1.137883e-03  -1.570089e-02  0 
 -8.142163e-04  -1.167502e-02  0 
 4.272162e-04  -1.212757e-02  0 
 2.212501e-03  -1.284254e-02  0 
 -5.451285e-04  -1.354549e-02  0 
 -5.220973e-04  -1.040066e-02  0 
 2.025963e-03  -1.201323e-02  0 
 1.473246e-03  -1.352719e-02  0 
 -9.640508e-04  -1.135590e-02  0 
 -5.983010e-04  -1.232089e-02  0 
 2.618706e-04  -1.108424e-02  0 
 4.527779e-04  -1.308773e-02  0 
 1.255379e-03  -1.151382e-02  0 
 1.244273e-03  -1.248949e-02  0 
 2.375929e-03  -1.373012e-02  0 
VECTORS displacement_ITER6 FLOAT
 -2.243547e-04  -7.673877e-03  0 
 -2.544517e-04  -1.014142e-02  0 
 1.936825e-03  -1.008425e-02  0 
 -5.176152e-04  -7.671974e-03  0 
 -2.387246e-04  -8.346550e-03  0 
 -2.375426e-04  -8.960688e-03  0 
 -2.447666e-04  -9.547270e-03  0 
 -6.232031e-03  -3.233419e-02  0 
 -2.679187e-03  -2.621417e-02  0 
 1.856280e-03  -9.009945e-03  0 
 1.905861e-03  -9.535548e-03  0 
 3.195126e-04  -1.010828e-02  0 
 8.751515e-04  -1.007130e-02  0 
 1.401642e-03  -1.005544e-02  0 
 -3.862014e-04  -7.300690e-03  0 
 -3.367521e-03  -2.067078e-02  0 
 2.836672e-03  -8.993387e-03  0 
 2.552001e-03  -1.223768e-02  0 
 5.659036e-04  -8.840304e-03  0 
 7.771465e-04  -9.016203e-03  0 
 1.523859e-03  -9.335494e-03  0 
 3.441051e-04  -9.658296e-03  0 
 3.696561e-04  -8.222857e-03  0 
 1.446048e-03  -8.991666e-03  0 
 1.218567e-03  -9.631998e-03  0 
 1.652181e-04  -8.666084e-03  0 
 3.254020e-04  -9.104532e-03  0 
 7.084724e-04  -8.545701e-03  0 
 7.858465e-04  -9.445257e-03  0 
 1.124557e-03  -8.754832e-03  0 
 1.125338e-03  -9.182336e-03  0 
 1.595554e-03  -9.721265e-03  0 
VECTORS displacement_ITER7 FLOAT
 -3.527870e-05  -6.053966e-03  0 
 -9.848423e-05  -8.442964e-03  0 
 2.104879e-03  -8.425257e-03  0 
 -1.810469e-04  -6.055419e-03  0 
 -5.873560e-05  -6.697507e-03  0 
 -7.027945e-05  -7.288811e-03  0 
 -8.660969e-05  -7.859039e-03  0 
 -2.023358e-03  -2.691683e-02  0 
 -2.026381e-03  -2.311983e-02  0 
 2.033368e-03  -7.337316e-03  0 
 2.074958e-03  -7.864178e-03  0 
 4.681952e-04  -8.415392e-03  0 
 1.020510e-03  -8.390657e-03  0 
 1.556445e-03  -8.391403e-03  0 
 -7.803700e-05  -5.885896e-03  0 
 -1.549885e-03  -1.844481e-02  0 
 2.545979e-03  -8.785668e-03  0 
 2.304695e-03  -1.085914e-02  0 
 6.098033e-04  -7.558999e-03  0 
 9.148983e-04  -7.328283e-03  0 
 1.679087e-03  -7.661264e-03  0 
 4.893951e-04  -7.966747e-03  0 
 5.270800e-04  -6.568772e-03  0 
 1.589780e-03  -7.297332e-03  0 
 1.364437e-03  -7.956286e-03  0 
 3.238160e-04  -6.995570e-03  0 
 4.721475e-04  -7.418417e-03  0 
 8.480767e-04  -6.863535e-03  0 
 9.247538e-04  -7.757440e-03  0 
 1.258584e-03  -7.061142e-03  0 
 1.262093e-03  -7.494256e-03  0 
 1.754020e-03  -8.053315e-03  0 
VECTORS displacement_ITER8 FLOAT
 3.478179e-04  -5.836430e-03  0 
 2.471105e-04  -7.454344e-03  0 
 1.739648e-03  -7.468667e-03  0 
 -9.906321e-05  -5.781528e-03  0 
 3.082663e-04  -6.278557e-03  0 
 2.816966e-04  -6.672646e-03  0 
 2.595787e-04  -7.055323e-03  0 
 -6.561787e-04  -2.609611e-02  0 
 -1.041336e-03  -2.152890e-02  0 
 1.683862e-03  -6.687494e-03  0 
 1.713013e-03  -7.069371e-03  0 
 6.291316e-04  -7.429938e-03  0 
 9.976867e-04  -7.412255e-03  0 
 1.357626e-03  -7.425685e-03  0 
 4.645492e-05  -5.305003e-03  0 
 -1.081583e-06  -1.709827e-02  0 
 2.084108e-03  -8.387656e-03  0 
 2.530260e-03  -1.036539e-02  0 
 7.364167e-04  -7.064620e-03  0 
 9.237226e-04  -6.689452e-03  0 
 1.432214e-03  -6.924814e-03  0 
 6.448827e-04  -7.123322e-03  0 
 6.816347e-04  -6.184137e-03  0 
 1.371386e-03  -6.678753e-03  0 
 1.223956e-03  -7.122008e-03  0 
 5.459299e-04  -6.467004e-03  0 
 6.359807e-04  -6.748229e-03  0 
 8.790314e-04  -6.375158e-03  0 
 9.325604e-04  -6.981632e-03  0 
 1.145919e-03  -6.508971e-03  0 
 1.153568e-03  -6.807109e-03  0 
 1.488644e-03  -7.197283e-03  0 
VECTORS displacement_ITER9 FLOAT
 1.178843e-04  -5.610171e-03  0 
 1.843162e-05  -7.541369e-03  0 
 1.868073e-03  -7.572030e-03  0 
 -1.497022e-04  -5.546219e-03  0 
 8.098117e-05  -6.125111e-03  0 
 5.425414e-05  -6.597820e-03  0 
 3.184023e-05  -7.062058e-03  0 
 -3.335210e-04  -2.547557e-02  0 
 -1.188728e-03  -2.130227e-02  0 
 1.821360e-03  -6.585843e-03  0 
 1.843455e-03  -7.071564e-03  0 
 4.823246e-04  -7.518087e-03  0 
 9.339929e-04  -7.503339e-03  0 
 1.386667e-03  -7.524767e-03  0 
 -7.334139e-05  -5.252288e-03  0 
 -5.665916e-07  -1.695097e-02  0 
 1.718119e-03  -8.452869e-03  0 
 2.220830e-03  -1.039648e-02  0 
 6.230004e-04  -6.767003e-03  0 
 8.454245e-04  -6.618039e-03  0 
 1.483526e-03  -6.896723e-03  0 
 4.989491e-04  -7.146365e-03  0 
 5.376702e-04  -6.012790e-03  0 
 1.404920e-03  -6.577589e-03  0 
 1.216949e-03  -7.145531e-03  0 
 3.734469e-04  -6.352843e-03  0 
 4.876659e-04  -6.694726e-03  0 
 7.934090e-04  -6.238264e-03  0 
 8.526277e-04  -6.973453e-03  0 
 1.127105e-03  -6.391130e-03  0 
 1.128448e-03  -6.752342e-03  0 
 1.553817e-03  -7.238204e-03  0 
VECTORS displacement_ITER10 FLOAT
 2.031020e-04  -5.592032e-03  0 
 9.173616e-05  -7.421906e-03  0 
 1.850731e-03  -7.441477e-03  0 
 -9.438436e-05  -5.542188e-03  0 
 1.581905e-04  -6.067252e-03  0 
 1.250492e-04  -6.513477e-03  0 
 1.046104e-04  -6.961548e-03  0 
 -5.059988e-04  -2.562592e-02  0 
 -1.050588e-03  -2.114450e-02  0 
 1.796779e-03  -6.522357e-03  0 
 1.824606e-03  -6.970464e-03  0 
 5.357277e-04  -7.398201e-03  0 
 9.672836e-04  -7.381799e-03  0 
 1.396863e-03  -7.397925e-03  0 
 4.873802e-06  -5.210445e-03  0 
 1.255726e-04  -1.675245e-02  0 
 1.720662e-03  -8.383259e-03  0 
 2.284511e-03  -1.030766e-02  0 
 6.886937e-04  -6.713726e-03  0 
 8.835114e-04  -6.539486e-03  0 
 1.489264e-03  -6.802279e-03  0 
 5.523108e-04  -7.042620e-03  0 
 5.789178e-04  -5.953829e-03  0 
 1.413010e-03  -6.498423e-03  0 
 1.237364e-03  -7.039173e-03  0 
 4.275732e-04  -6.278590e-03  0 
 5.411568e-04  -6.610212e-03  0 
 8.323524e-04  -6.177868e-03  0 
 8.904979e-04  -6.877145e-03  0 
 1.157389e-03  -6.322368e-03  0 
 1.154510e-03  -6.665108e-03  0 
 1.554997e-03  -7.125691e-03  0 
VECTORS displacement_ITER11 FLOAT
 1.969965e-04  -5.581205e-03  0 
 9.060049e-05  -7.428144e-03  0 
 1.859961e-03  -7.449119e-03  0 
 -1.009810e-04  -5.531274e-03  0 
 1.550555e-04  -6.065777e-03  0 
 1.246556e-04  -6.516856e-03  0 
 1.037453e-04  -6.966051e-03  0 
 -5.393997e-04  -2.555144e-02  0 
 -1.048669e-03  -2.110552e-02  0 
 1.806098e-03  -6.524218e-03  0 
 1.833816e-03  -6.975020e-03  0 
 5.367389e-04  -7.404395e-03  0 
 9.703977e-04  -7.388323e-03  0 
 1.402842e-03  -7.405448e-03  0 
 -2.524286e-07  -5.195951e-03  0 
 1.386619e-04  -1.673217e-02  0 
 1.605414e-03  -8.347642e-03  0 
 2.256814e-03  -1.032962e-02  0 
 7.360598e-04  -6.710404e-03  0 
 8.858948e-04  -6.540793e-03  0 
 1.496119e-03  -6.805872e-03  0 
 5.533225e-04  -7.046989e-03  0 
 5.837763e-04  -5.953741e-03  0 
 1.419372e-03  -6.499849e-03  0 
 1.241947e-03  -7.044163e-03  0 
 4.297454e-04  -6.281049e-03  0 
 5.425115e-04  -6.612749e-03  0 
 8.352307e-04  -6.177970e-03  0 
 8.929135e-04  -6.880551e-03  0 
 1.159666e-03  -6.322153e-03  0 
 1.157996e-03  -6.667559e-03  0 
 1.562221e-03  -7.131355e-03  0 
VECTORS displacement_ITER12 FLOAT
 1.950479e-04  -5.580609e-03  0 
 8.806856e-05  -7.428721e-03  0 
 1.858801e-03  -7.449157e-03  0 
 -1.042481e-04  -5.529608e-03  0 
 1.527188e-04  -6.064632e-03  0 
 1.220363e-04  -6.516046e-03  0 
 1.011654e-04  -6.965952e-03  0 
 -5.340131e-04  -2.552337e-02  0 
 -1.061974e-03  -2.111117e-02  0 
 1.804616e-03  -6.524409e-03  0 
 1.832588e-03  -6.975090e-03  0 
 5.348030e-04  -7.404944e-03  0 
 9.690133e-04  -7.388763e-03  0 
 1.401643e-03  -7.405649e-03  0 
 -4.380850e-06  -5.194295e-03  0 
 1.280766e-04  -1.674983e-02  0 
 1.602643e-03  -8.345232e-03  0 
 2.252737e-03  -1.033104e-02  0 
 7.393384e-04  -6.712366e-03  0 
 8.843355e-04  -6.540494e-03  0 
 1.495057e-03  -6.805875e-03  0 
 5.514245e-04  -7.047125e-03  0 
 5.815651e-04  -5.951949e-03  0 
 1.418433e-03  -6.499987e-03  0 
 1.240761e-03  -7.044309e-03  0 
 4.274408e-04  -6.279911e-03  0 
 5.404979e-04  -6.612238e-03  0 
 8.333558e-04  -6.177033e-03  0 
 8.914680e-04  -6.880585e-03  0 
 1.158273e-03  -6.322110e-03  0 
 1.156770e-03  -6.667611e-03  0 
 1.561101e-03  -7.131412e-03  0 
VECTORS displacement_ITER13 FLOAT
 1.955903e-04  -5.580399e-03  0 
 8.878159e-05  -7.428484e-03  0 
 1.858689e-03  -7.448911e-03  0 
 -1.036808e-04  -5.529511e-03  0 
 1.532521e-04  -6.064580e-03  0 
 1.226666e-04  -6.516041e-03  0 
 1.018800e-04  -6.965884e-03  0 
 -5.405652e-04  -2.553022e-02  0 
 -1.057331e-03  -2.110709e-02  0 
 1.804627e-03  -6.524458e-03  0 
 1.832500e-03  -6.975019e-03  0 
 5.353558e-04  -7.404662e-03  0 
 9.693568e-04  -7.388418e-03  0 
 1.401736e-03  -7.405339e-03  0 
 -3.762116e-06  -5.194366e-03  0 
 1.320529e-04  -1.674293e-02  0 
 1.603517e-03  -8.347291e-03  0 
 2.253460e-03  -1.033028e-02  0 
 7.409527e-04  -6.711631e-03  0 
 8.848050e-04  -6.540574e-03  0 
 1.495036e-03  -6.805888e-03  0 
 5.519958e-04  -7.046994e-03  0 
 5.820980e-04  -5.951913e-03  0 
 1.418376e-03  -6.500073e-03  0 
 1.240921e-03  -7.044150e-03  0 
 4.280166e-04  -6.279973e-03  0 
 5.411115e-04  -6.612311e-03  0 
 8.339278e-04  -6.177313e-03  0 
 8.918782e-04  -6.880486e-03  0 
 1.158424e-03  -6.322455e-03  0 
 1.156946e-03  -6.667611e-03  0 
 1.561087e-03  -7.131271e-03  0 
VECTORS displacement_ITER14 FLOAT
 1.955650e-04  -5.580455e-03  0 
 8.874802e-05  -7.428467e-03  0 
 1.858671e-03  -7.448930e-03  0 
 -1.036892e-04  -5.529569e-03  0 
 1.532238e-04  -6.064627e-03  0 
 1.226424e-04  -6.516073e-03  0 
 1.018498e-04  -6.965892e-03  0 
 -5.401274e-04  -2.553037e-02  0 
 -1.057195e-03  -2.110690e-02  0 
 1.804591e-03  -6.524445e-03  0 
 1.832479e-03  -6.975011e-03  0 
 5.353039e-04  -7.404651e-03  0 
 9.692874e-04  -7.388422e-03  0 
 1.401683e-03  -7.405369e-03  0 
 -3.786648e-06  -5.194450e-03  0 
 1.322336e-04  -1.674251e-02  0 
 1.603742e-03  -8.348130e-03  0 
 2.253352e-03  -1.033026e-02  0 
 7.409887e-04  -6.711273e-03  0 
 8.847237e-04  -6.540588e-03  0 
 1.495012e-03  -6.805871e-03  0 
 5.519401e-04  -7.046991e-03  0 
 5.820562e-04  -5.951959e-03  0 
 1.418366e-03  -6.500035e-03  0 
 1.240853e-03  -7.044162e-03  0 
 4.279794e-04  -6.280017e-03  0 
 5.410628e-04  -6.612328e-03  0 
 8.338584e-04  -6.177381e-03  0 
 8.918020e-04  -6.880490e-03  0 
 1.158332e-03  -6.322450e-03  0 
 1.156868e-03  -6.667616e-03  0 
 1.561056e-03  -7.131275e-03  0 
CELL_DATA 43
TENSORS element_stresses FLOAT
 -7.375807e-02  -2.117102e-01  0 
 -2.117102e-01  -2.256723e-01  0 
 0  0  0 

 1.015211e-03  -3.103058e-02  0 
 -3.103058e-02  1.799843e-02  0 
 0  0  0 

 6.514235e-03  -1.129186e-02  0 
 -1.129186e-02  2.188881e-02  0 
 0  0  0 

 4.549187e-03  -1.667520e-02  0 
 -1.667520e-02  5.607850e-02  0 
 0  0  0 

 3.270052e-03  -2.725660e-03  0 
 -2.725660e-03  7.774705e-04  0 
 0  0  0 

 1.100259e-03  -4.180457e-03  0 
 -4.180457e-03  4.232082e-03  0 
 0  0  0 

 -6.822364e-03  -2.502418e-02  0 
 -2.502418e-02  1.624507e-02  0 
 0  0  0 

 6.481532e-03  -1.125416e-02  0 
 -1.125416e-02  2.188234e-02  0 
 0  0  0 

 7.666068e-03  -1.196480e-02  0 
 -1.196480e-02  7.454029e-03  0 
 0  0  0 

 4.002060e-03  -1.099963e-02  0 
 -1.099963e-02  2.260551e-02  0 
 0  0  0 

 1.150860e-03  -4.080679e-03  0 
 -4.080679e-03  4.243952e-03  0 
 0  0  0 

 2.261848e-03  -5.488919e-03  0 
 -5.488919e-03  6.031975e-03  0 
 0  0  0 

 8.151429e-02  -3.472695e-02  0 
 -3.472695e-02  -1.001232e-01  0 
 0  0  0 

 -2.343715e-02  -7.427154e-02  0 
 -7.427154e-02  5.788508e-02  0 
 0  0  0 

 3.753319e-02  -5.224954e-02  0 
 -5.224954e-02  -9.722788e-02  0 
 0  0  0 

 6.632286e-02  -9.928870e-02  0 
 -9.928870e-02  -3.874430e-02  0 
 0  0  0 

 -1.030335e-01  -7.149840e-02  0 
 -7.149840e-02  6.430658e-02  0 
 0  0  0 

 -6.104029e-02  -4.138789e-02  0 
 -4.138789e-02  7.376724e-02  0 
 0  0  0 

 1.598379e-02  -7.671678e-02  0 
 -7.671678e-02  -6.299590e-02  0 
 0  0  0 

 2.484904e-03  -8.975750e-02  0 
 -8.975750e-02  -5.491686e-02  0 
 0  0  0 

 -3.326618e-02  -9.526352e-02  0 
 -9.526352e-02  2.454940e-02  0 
 0  0  0 

 -7.149685e-02  -1.005606e-01  0 
 -1.005606e-01  1.972462e-03  0 
 0  0  0 

 1.910827e-02  -1.119938e-01  0 
 -1.119938e-01  -7.079334e-03  0 
 0  0  0 

 7.957195e-03  -1.109251e-01  0 
 -1.109251e-01  -4.436653e-02  0 
 0  0  0 

 -2.433965e-02  -3.632649e-02  0 
 -3.632649e-02  6.762132e-02  0 
 0  0  0 

 -4.898280e-02  -7.199888e-02  0 
 -7.199888e-02  4.716942e-02  0 
 0  0  0 

 -2.396542e-02  -1.330805e-01  0 
 -1.330805e-01  -1.888073e-02  0 
 0  0  0 

 4.430602e-03  -7.169846e-02  0 
 -7.169846e-02  4.312393e-02  0 
 0  0  0 

 -1.211529e-02  -8.455523e-02  0 
 -8.455523e-02  -2.717965e-02  0 
 0  0  0 

 -1.575963e-02  -1.180644e-01  0 
 -1.180644e-01  -7.987301e-03  0 
 0  0  0 

 2.005793e-02  -1.093568e-01  0 
 -1.093568e-01  -8.615024e-03  0 
 0  0  0 

 -3.087141e-02  -5.687543e-02  0 
 -5.687543e-02  7.178554e-02  0 
 0  0  0 

 -1.201504e-02  -3.498858e-02  0 
 -3.498858e-02  9.166054e-02  0 
 0  0  0 

 -1.781647e-01  -2.242459e-01  0 
 -2.242459e-01  -2.933207e-02  0 
 0  0  0 

 6.458915e-02  -6.359423e-02  0 
 -6.359423e-02  -1.339395e-01  0 
 0  0  0 

 4.124107e-02  -3.597747e-02  0 
 -3.597747e-02  -1.618696e-01  0 
 0  0  0 

 2.226977e-02  -3.652135e-02  0 
 -3.652135e-02  -1.061182e-01  0 
 0  0  0 

 7.450454e-03  -6.645840e-02  0 
 -6.645840e-02  -8.395450e-02  0 
 0  0  0 

 4.275234e-02  -8.228759e-02  0 
 -8.228759e-02  -7.039902e-02  0 
 0  0  0 

 -5.532300e-02  -4.841290e-02  0 
 -4.841290e-02  7.762548e-02  0 
 0  0  0 

 -2.593735e-02  -8.132515e-02  0 
 -8.132515e-02  1.516122e-02  0 
 0  0  0 

 -9.376071e-03  -9.366050e-02  0 
 -9.366050e-02  1.663056e-02  0 
 0  0  0 

 -4.045006e-02  -9.565015e-02  0 
 -9.565015e-02  1.130265e-02  0 
 0  0  0 

TENSORS element_stresses FLOAT
 -7.375807e-02  -2.117102e-01  0 
 -2.117102e-01  -2.256723e-01  0 
 0  0  0 

 1.015211e-03  -3.103058e-02  0 
 -3.103058e-02  1.799843e-02  0 
 0  0  0 

 6.514235e-03  -1.129186e-02  0 
 -1.129186e-02  2.188881e-02  0 
 0  0  0 

 4.549187e-03  -1.667520e-02  0 
 -1.667520e-02  5.607850e-02  0 
 0  0  0 

 3.270052e-03  -2.725660e-03  0 
 -2.725660e-03  7.774705e-04  0 
 0  0  0 

 1.100259e-03  -4.180457e-03  0 
 -4.180457e-03  4.232082e-03  0 
 0  0  0 

 -6.822364e-03  -2.502418e-02  0 
 -2.502418e-02  1.624507e-02  0 
 0  0  0 

 6.481532e-03  -1.125416e-02  0 
 -1.125416e-02  2.188234e-02  0 
 0  0  0 

 7.666068e-03  -1.196480e-02  0 
 -1.196480e-02  7.454029e-03  0 
 0  0  0 

 4.002060e-03  -1.099963e-02  0 
 -1.099963e-02  2.260551e-02  0 
 0  0  0 

 1.150860e-03  -4.080679e-03  0 
 -4.080679e-03  4.243952e-03  0 
 0  0  0 

 2.261848e-03  -5.488919e-03  0 
 -5.488919e-03  6.031975e-03  0 
 0  0  0 

 8.151429e-02  -3.472695e-02  0 
 -3.472695e-02  -1.001232e-01  0 
 0  0  0 

 -2.343715e-02  -7.427154e-02  0 
 -7.427154e-02  5.788508e-02  0 
 0  0  0 

 3.753319e-02  -5.224954e-02  0 
 -5.224954e-02  -9.722788e-02  0 
 0  0  0 

 6.632286e-02  -9.928870e-02  0 
 -9.928870e-02  -3.874430e-02  0 
 0  0  0 

 -1.030335e-01  -7.149840e-02  0 
 -7.149840e-02  6.430658e-02  0 
 0  0  0 

 -6.104029e-02  -4.138789e-02  0 
 -4.138789e-02  7.376724e-02  0 
 0  0  0 

 1.598379e-02  -7.671678e-02  0 
 -7.671678e-02  -6.299590e-02  0 
 0  0  0 

 2.484904e-03  -8.975750e-02  0 
 -8.975750e-02  -5.491686e-02  0 
 0  0  0 

 -3.326618e-02  -9.526352e-02  0 
 -9.526352e-02  2.454940e-02  0 
 0  0  0 

 -7.149685e-02  -1.005606e-01  0 
 -1.005606e-01  1.972462e-03  0 
 0  0  0 

 1.910827e-02  -1.119938e-01  0 
 -1.119938e-01  -7.079334e-03  0 
 0  0  0 

 7.957195e-03  -1.109251e-01  0 
 -1.109251e-01  -4.436653e-02  0 
 0  0  0 

 -2.433965e-02  -3.632649e-02  0 
 -3.632649e-02  6.762132e-02  0 
 0  0  0 

 -4.898280e-02  -7.199888e-02  0 
 -7.199888e-02  4.716942e-02  0 
 0  0  0 

 -2.396542e-02  -1.330805e-01  0 
 -1.330805e-01  -1.888073e-02  0 
 0  0  0 

 4.430602e-03  -7.169846e-02  0 
 -7.169846e-02  4.312393e-02  0 
 0  0  0 

 -1.211529e-02  -8.455523e-02  0 
 -8.455523e-02  -2.717965e-02  0 
 0  0  0 

 -1.575963e-02  -1.180644e-01  0 
 -1.180644e-01  -7.987301e-03  0 
 0  0  0 

 2.005793e-02  -1.093568e-01  0 
 -1.093568e-01  -8.615024e-03  0 
 0  0  0 

 -3.087141e-02  -5.687543e-02  0 
 -5.687543e-02  7.178554e-02  0 
 0  0  0 

 -1.201504e-02  -3.498858e-02  0 
 -3.498858e-02  9.166054e-02  0 
 0  0  0 

 -1.781647e-01  -2.242459e-01  0 
 -2.242459e-01  -2.933207e-02  0 
 0  0  0 

 6.458915e-02  -6.359423e-02  0 
 -6.359423e-02  -1.339395e-01  0 
 0  0  0 

 4.124107e-02  -3.597747e-02  0 
 -3.597747e-02  -1.618696e-01  0 
 0  0  0 

 2.226977e-02  -3.652135e-02  0 
 -3.652135e-02  -1.061182e-01  0 
 0  0  0 

 7.450454e-03  -6.645840e-02  0 
 -6.645840e-02  -8.395450e-02  0 
 0  0  0 

 4.275234e-02  -8.228759e-02  0 
 -8.228759e-02  -7.039902e-02  0 
 0  0  0 

 -5.532300e-02  -4.841290e-02  0 
 -4.841290e-02  7.762548e-02  0 
 0  0  0 

 -2.593735e-02  -8.132515e-02  0 
 -8.132515e-02  1.516122e-02  0 
 0  0  0 

 -9.376071e-03  -9.366050e-02  0 
 -9.366050e-02  1.663056e-02  0 
 0  0  0 

 -4.045006e-02  -9.565015e-02  0 
 -9.565015e-02  1.130265e-02  0 
 0  0  0 

