# vtk DataFile Version 3.1
this is an vtk file created by FEMAC
ASCII
DATASET UNSTRUCTURED_GRID
POINTS 31 FLOAT
1.000000 5.000000 0.000000
1.000000 6.000000 0.000000
0.750000 5.000000 0.000000
1.000000 4.750000 0.000000
0.750000 6.000000 0.000000
1.000000 5.250000 0.000000
1.000000 5.500000 0.000000
1.000000 5.750000 0.000000
1.250000 5.000000 0.000000
1.500000 5.000000 0.000000
1.250000 6.000000 0.000000
1.500000 6.000000 0.000000
0.847252 4.832715 0.000000
0.660302 5.785301 0.000000
0.825570 5.361866 0.000000
0.825957 5.628272 0.000000
0.847252 5.832715 0.000000
0.847123 5.164854 0.000000
1.332147 4.803316 0.000000
1.500000 4.775000 0.000000
1.200764 4.609959 0.000000
1.396983 4.637131 0.000000
1.156582 4.832655 0.000000
1.325972 5.178472 0.000000
1.500000 5.225000 0.000000
1.171968 5.341551 0.000000
1.216647 5.581177 0.000000
1.399662 5.398247 0.000000
1.507893 5.661856 0.000000
1.245757 5.832172 0.000000
1.149588 5.154005 0.000000
CELLS 42 168 
3 2 12  0
3 12  3  0
3 6 15 14
3 14  5  6
3 7 15  6
3 4 16  1
3 16  7  1
3 16  4 13
3 17  2  0
3 5 17  0
3 16 15  7
3 13 15 16
3 14 17  5
3 18  9  8
3 18 19  9
3 18 21 19
3 21 18 20
3 3 22  0
3 8 22 18
3 22  8  0
3 20 22  3
3 20 18 22
3 9 23  8
3 24 23  9
3 27 23 24
3 5 25  6
3 26  7  6
3 27 25 23
3 7 29  1
3 29 10  1
3 30  5  0
3 30  8 23
3 8 30  0
3 26 29  7
3 30 25  5
3 23 25 30
3 6 25 26
3 26 25 27
3 27 28 26
3 29 11 10
3 29 28 11
3 26 28 29
CELL_TYPES 42
5 5 5 5 5 5 5 5 5 5 5 5 5 5 5 5 5 5 5 5 5 5 5 5 5 5 5 5 5 5 5 5 5 5 5 5 5 5 5 5 5 5 
POINT_DATA 31
VECTORS displacement_ITER1 FLOAT
 2.730349e-02  -3.531932e-02  0 
 9.740489e-02  -3.566911e-02  0 
 2.724432e-02  -3.668085e-03  0 
 -4.344171e-03  -3.522776e-02  0 
 5.170052e-02  -5.467696e-02  0 
 4.496784e-02  -3.543180e-02  0 
 6.250471e-02  -3.553154e-02  0 
 7.998543e-02  -3.560592e-02  0 
 2.737483e-02  -5.300139e-02  0 
 2.741472e-02  -7.061062e-02  0 
 9.745719e-02  -5.310506e-02  0 
 9.750363e-02  -7.056281e-02  0 
 6.089760e-03  -1.592839e-02  0 
 5.722431e-02  -2.809957e-02  0 
 4.640978e-02  -1.941254e-02  0 
 6.408579e-02  -1.947967e-02  0 
 7.535032e-02  -2.716088e-02  0 
 3.434894e-02  -1.809076e-02  0 
 2.298135e-02  -5.612173e-02  0 
 3.508697e-02  -5.963841e-02  0 
 6.241606e-03  -2.997448e-02  0 
 2.150068e-02  -4.549709e-02  0 
 1.310633e-02  -4.784652e-02  0 
 3.996839e-02  -5.836998e-02  0 
 4.325205e-02  -7.061294e-02  0 
 5.142538e-02  -4.755067e-02  0 
 6.821560e-02  -5.072033e-02  0 
 5.542040e-02  -6.354021e-02  0 
 7.386244e-02  -7.109249e-02  0 
 8.574841e-02  -5.277257e-02  0 
 3.822507e-02  -4.594907e-02  0 
VECTORS displacement_ITER2 FLOAT
 3.308793e-02  -3.735346e-02  0 
 9.450140e-02  -3.772082e-02  0 
 3.301667e-02  -7.928706e-03  0 
 3.656844e-03  -3.725340e-02  0 
 5.151495e-02  -5.791703e-02  0 
 4.859606e-02  -3.747790e-02  0 
 6.396029e-02  -3.758557e-02  0 
 7.926214e-02  -3.766122e-02  0 
 3.316541e-02  -5.288040e-02  0 
 3.320335e-02  -6.833239e-02  0 
 9.455097e-02  -5.297655e-02  0 
 9.459482e-02  -6.825360e-02  0 
 1.335485e-02  -1.931163e-02  0 
 5.790056e-02  -3.342270e-02  0 
 4.931750e-02  -2.377135e-02  0 
 6.494695e-02  -2.399464e-02  0 
 7.463195e-02  -3.101433e-02  0 
 3.888883e-02  -2.202945e-02  0 
 2.786403e-02  -5.866748e-02  0 
 3.658322e-02  -6.641009e-02  0 
 8.665113e-03  -3.554342e-02  0 
 2.173525e-02  -5.309136e-02  0 
 1.983569e-02  -4.913718e-02  0 
 4.421773e-02  -5.758999e-02  0 
 4.709598e-02  -6.832213e-02  0 
 5.426017e-02  -4.810642e-02  0 
 6.896363e-02  -5.088720e-02  0 
 5.776113e-02  -6.211529e-02  0 
 7.390338e-02  -6.871738e-02  0 
 8.430589e-02  -5.268292e-02  0 
 4.268521e-02  -4.669782e-02  0 
VECTORS displacement_ITER3 FLOAT
 2.835551e-02  -2.208330e-02  0 
 7.245063e-02  -2.247297e-02  0 
 2.826149e-02  2.413779e-03  0 
 3.842509e-03  -2.196007e-02  0 
 3.537994e-02  -4.306694e-02  0 
 3.955978e-02  -2.222893e-02  0 
 5.059151e-02  -2.234741e-02  0 
 6.155201e-02  -2.242213e-02  0 
 2.844580e-02  -3.330862e-02  0 
 2.848356e-02  -4.444977e-02  0 
 7.249383e-02  -3.338795e-02  0 
 7.253179e-02  -4.432260e-02  0 
 1.190410e-02  -7.030358e-03  0 
 4.277240e-02  -2.261130e-02  0 
 3.887480e-02  -1.240957e-02  0 
 5.021205e-02  -1.275644e-02  0 
 5.684481e-02  -1.854800e-02  0 
 3.164234e-02  -1.018674e-02  0 
 2.398872e-02  -4.297286e-02  0 
 2.847297e-02  -5.583205e-02  0 
 3.192715e-03  -2.499994e-02  0 
 1.309166e-02  -4.449431e-02  0 
 1.800522e-02  -3.248962e-02  0 
 3.641980e-02  -3.670433e-02  0 
 3.849025e-02  -4.442329e-02  0 
 4.364023e-02  -2.988408e-02  0 
 5.418390e-02  -3.188815e-02  0 
 4.615562e-02  -3.994442e-02  0 
 5.771497e-02  -4.465459e-02  0 
 6.516304e-02  -3.317237e-02  0 
 3.530857e-02  -2.886182e-02  0 
VECTORS displacement_ITER4 FLOAT
 2.643453e-02  -1.802654e-02  0 
 6.452552e-02  -1.841731e-02  0 
 2.632500e-02  3.559795e-03  0 
 4.821720e-03  -1.789178e-02  0 
 3.197351e-02  -3.709748e-02  0 
 3.615064e-02  -1.818039e-02  0 
 4.567876e-02  -1.830154e-02  0 
 5.513202e-02  -1.837326e-02  0 
 2.653557e-02  -2.775731e-02  0 
 2.657719e-02  -3.739893e-02  0 
 6.456368e-02  -2.782678e-02  0 
 6.459712e-02  -3.725410e-02  0 
 1.191800e-02  -4.738817e-03  0 
 3.855032e-02  -1.909084e-02  0 
 3.529386e-02  -9.899764e-03  0 
 4.518649e-02  -1.025902e-02  0 
 5.093918e-02  -1.530157e-02  0 
 2.902947e-02  -7.738824e-03  0 
 2.250343e-02  -3.855010e-02  0 
 2.542293e-02  -5.286129e-02  0 
 1.660790e-03  -2.302995e-02  0 
 1.014161e-02  -4.249876e-02  0 
 1.758179e-02  -2.776343e-02  0 
 3.344053e-02  -3.069890e-02  0 
 3.523136e-02  -3.737012e-02  0 
 3.968089e-02  -2.480353e-02  0 
 4.877988e-02  -2.653577e-02  0 
 4.185308e-02  -3.349178e-02  0 
 5.181997e-02  -3.754232e-02  0 
 5.824386e-02  -2.764025e-02  0 
 3.247434e-02  -2.391639e-02  0 
VECTORS displacement_ITER5 FLOAT
 2.524324e-02  -1.578428e-02  0 
 4.913947e-02  -1.616743e-02  0 
 2.510733e-02  -1.012997e-03  0 
 1.042179e-02  -1.563546e-02  0 
 2.471977e-02  -3.144521e-02  0 
 3.143104e-02  -1.594613e-02  0 
 3.740612e-02  -1.606926e-02  0 
 4.330046e-02  -1.613534e-02  0 
 2.536696e-02  -2.196409e-02  0 
 2.542183e-02  -2.804789e-02  0 
 4.916761e-02  -2.202098e-02  0 
 4.919170e-02  -2.788816e-02  0 
 1.526181e-02  -6.640575e-03  0 
 3.044602e-02  -1.812437e-02  0 
 3.001355e-02  -1.063474e-02  0 
 3.624505e-02  -1.091273e-02  0 
 3.968895e-02  -1.461309e-02  0 
 2.613244e-02  -8.826501e-03  0 
 2.387392e-02  -3.086831e-02  0 
 2.649402e-02  -4.200829e-02  0 
 7.011421e-03  -1.931949e-02  0 
 1.390963e-02  -3.410092e-02  0 
 1.985687e-02  -2.262258e-02  0 
 2.973822e-02  -2.383394e-02  0 
 3.087090e-02  -2.802816e-02  0 
 3.366002e-02  -2.012794e-02  0 
 3.934828e-02  -2.121904e-02  0 
 3.502298e-02  -2.557506e-02  0 
 4.123250e-02  -2.807286e-02  0 
 4.523606e-02  -2.190197e-02  0 
 2.911465e-02  -1.956053e-02  0 
VECTORS displacement_ITER6 FLOAT
 1.596416e-02  -1.049308e-02  0 
 3.588125e-02  -1.086768e-02  0 
 1.580523e-02  1.311651e-03  0 
 4.090206e-03  -1.033096e-02  0 
 1.885617e-02  -1.994748e-02  0 
 2.117598e-02  -1.066022e-02  0 
 2.615196e-02  -1.078498e-02  0 
 3.104190e-02  -1.084636e-02  0 
 1.610935e-02  -1.567394e-02  0 
 1.617817e-02  -2.075153e-02  0 
 3.589964e-02  -1.571983e-02  0 
 3.591423e-02  -2.058136e-02  0 
 7.944974e-03  -3.145030e-03  0 
 2.160161e-02  -9.876755e-03  0 
 2.019396e-02  -6.004121e-03  0 
 2.536528e-02  -6.169735e-03  0 
 2.857978e-02  -8.933312e-03  0 
 1.678436e-02  -4.675660e-03  0 
 1.625959e-02  -2.248202e-02  0 
 2.002159e-02  -2.995761e-02  0 
 2.935191e-03  -1.234289e-02  0 
 9.723034e-03  -2.339773e-02  0 
 1.212700e-02  -1.615389e-02  0 
 1.976941e-02  -1.724792e-02  0 
 2.071986e-02  -2.074332e-02  0 
 2.303894e-02  -1.415770e-02  0 
 2.776527e-02  -1.506496e-02  0 
 2.417260e-02  -1.869090e-02  0 
 2.931914e-02  -2.074323e-02  0 
 3.264178e-02  -1.562495e-02  0 
 1.923868e-02  -1.368171e-02  0 
VECTORS displacement_ITER7 FLOAT
 1.027318e-02  -9.466328e-03  0 
 2.444321e-02  -9.843213e-03  0 
 1.008918e-02  -1.927296e-04  0 
 9.055389e-04  -9.292544e-03  0 
 1.477830e-02  -1.341183e-02  0 
 1.407445e-02  -9.641297e-03  0 
 1.760998e-02  -9.772437e-03  0 
 2.105036e-02  -9.832056e-03  0 
 1.044211e-02  -1.321105e-02  0 
 1.052470e-02  -1.684754e-02  0 
 2.445142e-02  -1.324688e-02  0 
 2.445559e-02  -1.665570e-02  0 
 3.921601e-03  -3.646864e-03  0 
 1.502649e-02  -6.800566e-03  0 
 1.334517e-02  -5.996546e-03  0 
 1.701346e-02  -6.128384e-03  0 
 1.961497e-02  -7.906225e-03  0 
 1.082757e-02  -4.924077e-03  0 
 1.133814e-02  -1.801350e-02  0 
 1.537584e-02  -2.256406e-02  0 
 7.932691e-04  -9.494796e-03  0 
 6.982433e-03  -1.740428e-02  0 
 7.496209e-03  -1.358695e-02  0 
 1.308059e-02  -1.435631e-02  0 
 1.376704e-02  -1.684650e-02  0 
 1.541119e-02  -1.215322e-02  0 
 1.875100e-02  -1.279861e-02  0 
 1.621572e-02  -1.537007e-02  0 
 1.983046e-02  -1.678222e-02  0 
 2.216778e-02  -1.318417e-02  0 
 1.268435e-02  -1.180714e-02  0 
VECTORS displacement_ITER8 FLOAT
 1.065923e-02  -7.794856e-03  0 
 1.768692e-02  -8.181117e-03  0 
 1.045991e-02  -6.129839e-04  0 
 3.367969e-03  -7.613563e-03  0 
 1.219315e-02  -9.701719e-03  0 
 1.269429e-02  -7.977264e-03  0 
 1.444252e-02  -8.115134e-03  0 
 1.608803e-02  -8.175466e-03  0 
 1.084217e-02  -9.759917e-03  0 
 1.093138e-02  -1.161490e-02  0 
 1.768911e-02  -9.789597e-03  0 
 1.768683e-02  -1.140098e-02  0 
 5.691670e-03  -3.242184e-03  0 
 1.190904e-02  -5.437804e-03  0 
 1.169023e-02  -5.611431e-03  0 
 1.348267e-02  -5.757553e-03  0 
 1.492961e-02  -6.886333e-03  0 
 1.047078e-02  -4.530900e-03  0 
 1.200374e-02  -1.389253e-02  0 
 1.518624e-02  -1.775234e-02  0 
 2.688980e-03  -7.140993e-03  0 
 7.747059e-03  -1.378703e-02  0 
 8.767324e-03  -1.055623e-02  0 
 1.221209e-02  -1.036752e-02  0 
 1.256788e-02  -1.161317e-02  0 
 1.337821e-02  -9.264363e-03  0 
 1.500044e-02  -9.588353e-03  0 
 1.377597e-02  -1.085077e-02  0 
 1.549661e-02  -1.147747e-02  0 
 1.661184e-02  -9.761909e-03  0 
 1.198650e-02  -9.078002e-03  0 
VECTORS displacement_ITER9 FLOAT
 7.106711e-03  -5.959822e-03  0 
 1.260230e-02  -6.342579e-03  0 
 6.888479e-03  -7.130650e-04  0 
 1.731500e-03  -5.770541e-03  0 
 1.235929e-02  -3.354319e-03  0 
 8.774712e-03  -6.145539e-03  0 
 1.013662e-02  -6.285586e-03  0 
 1.139093e-02  -6.343860e-03  0 
 7.306820e-03  -7.537379e-03  0 
 7.405557e-03  -9.003107e-03  0 
 1.259714e-02  -7.561644e-03  0 
 1.258716e-02  -8.780768e-03  0 
 3.414073e-03  -2.576136e-03  0 
 9.827760e-03  -1.412584e-03  0 
 8.314450e-03  -4.115063e-03  0 
 9.703183e-03  -4.212683e-03  0 
 1.120531e-02  -4.681859e-03  0 
 7.184683e-03  -3.420607e-03  0 
 8.864328e-03  -1.046351e-02  0 
 1.205126e-02  -1.287828e-02  0 
 1.711848e-03  -4.812628e-03  0 
 6.067866e-03  -9.593794e-03  0 
 5.979675e-03  -8.030164e-03  0 
 8.403626e-03  -8.033149e-03  0 
 8.690031e-03  -9.005118e-03  0 
 9.317198e-03  -7.169271e-03  0 
 1.056599e-02  -7.420728e-03  0 
 9.625480e-03  -8.399976e-03  0 
 1.093290e-02  -8.851292e-03  0 
 1.178267e-02  -7.546074e-03  0 
 8.211383e-03  -7.018916e-03  0 
VECTORS displacement_ITER10 FLOAT
 5.423199e-04  -5.820920e-03  0 
 7.510330e-03  -6.199339e-03  0 
 3.089274e-04  -2.440227e-03  0 
 -2.981204e-03  -5.625196e-03  0 
 9.537919e-03  -6.638457e-04  0 
 2.587308e-03  -6.007188e-03  0 
 4.314946e-03  -6.146533e-03  0 
 5.932988e-03  -6.203405e-03  0 
 7.563093e-04  -7.757920e-03  0 
 8.637099e-04  -9.581345e-03  0 
 7.501692e-03  -7.783201e-03  0 
 7.487979e-03  -9.365612e-03  0 
 -1.917480e-03  -3.566816e-03  0 
 5.667802e-03  3.576865e-04  0 
 2.727944e-03  -3.778118e-03  0 
 4.455677e-03  -3.785855e-03  0 
 6.366944e-03  -4.016018e-03  0 
 1.124246e-03  -3.619853e-03  0 
 3.246914e-03  -9.181151e-03  0 
 7.193681e-03  -9.665379e-03  0 
 -1.051054e-03  -3.891712e-03  0 
 3.083736e-03  -6.585765e-03  0 
 2.852246e-04  -7.609001e-03  0 
 2.112906e-03  -8.369043e-03  0 
 2.469834e-03  -9.589945e-03  0 
 3.263044e-03  -7.282790e-03  0 
 4.861454e-03  -7.596990e-03  0 
 3.653183e-03  -8.843495e-03  0 
 5.345415e-03  -9.450615e-03  0 
 6.443129e-03  -7.764099e-03  0 
 1.881524e-03  -7.101142e-03  0 
VECTORS displacement_ITER11 FLOAT
 2.956996e-04  -6.296458e-03  0 
 7.308034e-03  -6.682930e-03  0 
 5.211249e-05  -4.591817e-03  0 
 -1.560709e-03  -6.095388e-03  0 
 9.519460e-03  -1.409178e-03  0 
 2.360103e-03  -6.486739e-03  0 
 4.098585e-03  -6.628432e-03  0 
 5.724166e-03  -6.686735e-03  0 
 5.183707e-04  -8.244587e-03  0 
 6.305687e-04  -1.007765e-02  0 
 7.298794e-03  -8.272993e-03  0 
 7.284176e-03  -9.861349e-03  0 
 -1.052174e-03  -5.058469e-03  0 
 5.823802e-03  -7.020742e-04  0 
 2.697527e-03  -4.529376e-03  0 
 4.444303e-03  -4.525608e-03  0 
 6.292690e-03  -4.685661e-03  0 
 9.885307e-04  -4.641636e-03  0 
 3.143103e-03  -8.979629e-03  0 
 6.797648e-03  -8.974474e-03  0 
 2.968611e-04  -4.465678e-03  0 
 3.762761e-03  -6.137456e-03  0 
 6.463938e-04  -7.704594e-03  0 
 1.884001e-03  -8.862291e-03  0 
 2.244245e-03  -1.008846e-02  0 
 3.040291e-03  -7.770956e-03  0 
 4.647841e-03  -8.086211e-03  0 
 3.432278e-03  -9.339562e-03  0 
 5.134225e-03  -9.948215e-03  0 
 6.236408e-03  -8.254335e-03  0 
 1.649165e-03  -7.587931e-03  0 
VECTORS displacement_ITER12 FLOAT
 1.194225e-04  -4.706821e-03  0 
 5.450829e-03  -5.117145e-03  0 
 -1.335733e-04  -4.318002e-03  0 
 -4.256816e-04  -4.496831e-03  0 
 6.848072e-03  -1.681343e-03  0 
 1.776603e-03  -4.907442e-03  0 
 3.095919e-03  -5.056390e-03  0 
 4.295968e-03  -5.119115e-03  0 
 3.492700e-04  -6.246626e-03  0 
 4.641544e-04  -7.668145e-03  0 
 5.442148e-03  -6.278303e-03  0 
 5.427536e-03  -7.438177e-03  0 
 -3.548643e-04  -4.263902e-03  0 
 4.242371e-03  -1.061071e-03  0 
 1.971254e-03  -3.587429e-03  0 
 3.311805e-03  -3.635661e-03  0 
 4.669055e-03  -3.791327e-03  0 
 5.708913e-04  -3.721541e-03  0 
 2.542011e-03  -7.172574e-03  0 
 4.948697e-03  -8.035234e-03  0 
 1.690054e-04  -3.866291e-03  0 
 2.533332e-03  -5.592204e-03  0 
 8.609140e-04  -5.762001e-03  0 
 1.421877e-03  -6.740554e-03  0 
 1.704703e-03  -7.676122e-03  0 
 2.305421e-03  -5.906899e-03  0 
 3.508545e-03  -6.147738e-03  0 
 2.601817e-03  -7.092637e-03  0 
 3.857054e-03  -7.513428e-03  0 
 4.667976e-03  -6.266674e-03  0 
 1.225629e-03  -5.759031e-03  0 
VECTORS displacement_ITER13 FLOAT
 -9.684264e-04  -7.305488e-04  0 
 1.433148e-03  -1.187179e-03  0 
 -1.231738e-03  -5.384926e-04  0 
 -1.316741e-03  -5.052642e-04  0 
 1.673860e-03  -3.198941e-04  0 
 -2.123945e-05  -9.512352e-04  0 
 5.678773e-04  -1.115275e-03  0 
 1.026135e-03  -1.186498e-03  0 
 -7.313130e-04  -1.567091e-03  0 
 -6.154970e-04  -2.279103e-03  0 
 1.425073e-03  -1.600753e-03  0 
 1.409992e-03  -2.013876e-03  0 
 -1.316370e-03  -3.962585e-04  0 
 5.736432e-04  2.796733e-04  0 
 -2.182448e-04  -4.626909e-04  0 
 4.193056e-04  -6.492056e-04  0 
 1.023442e-03  -8.146291e-04  0 
 -9.650588e-04  -2.904550e-04  0 
 -6.129391e-05  -3.938274e-03  0 
 -2.007840e-04  -7.617833e-03  0 
 -3.550219e-03  -2.177546e-03  0 
 -2.805624e-03  -5.735178e-03  0 
 -4.917139e-04  -1.673226e-03  0 
 -1.656765e-04  -1.843955e-03  0 
 -1.878477e-05  -2.277096e-03  0 
 2.448346e-04  -1.456241e-03  0 
 7.428053e-04  -1.568794e-03  0 
 3.750398e-04  -1.976869e-03  0 
 8.500006e-04  -2.069104e-03  0 
 1.153316e-03  -1.601643e-03  0 
 -2.935957e-04  -1.368711e-03  0 
VECTORS displacement_ITER14 FLOAT
 4.588992e-03  -1.196054e-03  0 
 2.821561e-03  -1.679709e-03  0 
 4.321815e-03  -1.461524e-03  0 
 4.697936e-03  -9.645333e-04  0 
 2.545686e-03  -2.814722e-03  0 
 4.506301e-03  -1.427859e-03  0 
 4.054791e-03  -1.601075e-03  0 
 3.465561e-03  -1.677566e-03  0 
 4.829210e-03  -1.007023e-03  0 
 4.945254e-03  -6.910341e-04  0 
 2.813564e-03  -1.042269e-03  0 
 2.797836e-03  -4.048418e-04  0 
 4.545546e-03  -1.136634e-03  0 
 2.778881e-03  -2.513153e-03  0 
 3.818506e-03  -1.858118e-03  0 
 3.401031e-03  -2.141957e-03  0 
 3.076490e-03  -2.238975e-03  0 
 3.954544e-03  -1.402692e-03  0 
 4.615548e-03  -3.821047e-03  0 
 2.987873e-03  -8.631772e-03  0 
 3.271837e-04  -3.182247e-03  0 
 7.719031e-05  -7.323031e-03  0 
 5.002850e-03  -1.490897e-03  0 
 4.660387e-03  -9.705642e-04  0 
 4.613460e-03  -6.830823e-04  0 
 4.394142e-03  -1.221671e-03  0 
 3.891568e-03  -1.149928e-03  0 
 4.288196e-03  -7.946716e-04  0 
 3.659600e-03  -4.292489e-04  0 
 3.247780e-03  -1.061122e-03  0 
 4.632565e-03  -1.224080e-03  0 
VECTORS displacement_ITER15 FLOAT
 1.050049e-03  1.491619e-03  0 
 7.178233e-04  9.975850e-04  0 
 7.792544e-04  1.052283e-03  0 
 1.335469e-03  1.730051e-03  0 
 2.134992e-04  -1.250880e-04  0 
 1.329664e-03  1.254898e-03  0 
 1.237434e-03  1.079420e-03  0 
 1.005333e-03  1.000852e-03  0 
 1.293644e-03  1.317883e-03  0 
 1.413168e-03  1.275455e-03  0 
 7.095134e-04  1.279167e-03  0 
 6.928989e-04  1.560698e-03  0 
 1.121364e-03  1.449116e-03  0 
 3.673382e-04  2.901858e-04  0 
 8.586456e-04  9.988506e-04  0 
 8.134277e-04  7.110089e-04  0 
 7.236715e-04  5.697596e-04  0 
 6.937536e-04  1.335724e-03  0 
 1.227669e-03  -7.397721e-04  0 
 2.207147e-04  -4.044716e-03  0 
 -1.812959e-03  -2.988438e-04  0 
 -1.851132e-03  -3.195108e-03  0 
 1.503796e-03  1.123441e-03  0 
 1.381868e-03  1.242932e-03  0 
 1.402018e-03  1.280714e-03  0 
 1.349619e-03  1.212879e-03  0 
 1.190916e-03  1.220044e-03  0 
 1.324771e-03  1.312853e-03  0 
 1.075106e-03  1.523776e-03  0 
 9.052870e-04  1.265951e-03  0 
 1.318212e-03  1.243837e-03  0 
VECTORS displacement_ITER16 FLOAT
 -8.244412e-04  -4.615088e-04  0 
 3.694932e-03  -9.374712e-04  0 
 -1.094514e-03  -1.752560e-03  0 
 3.127395e-04  -2.256832e-04  0 
 2.441311e-03  -1.539403e-03  0 
 6.568608e-04  -6.899085e-04  0 
 1.777036e-03  -8.570980e-04  0 
 2.762658e-03  -9.328297e-04  0 
 -5.804214e-04  -1.830471e-03  0 
 -4.566889e-04  -3.068180e-03  0 
 3.687516e-03  -1.875132e-03  0 
 3.671915e-03  -2.812807e-03  0 
 -1.835841e-04  -1.025794e-03  0 
 2.092554e-03  -5.648539e-04  0 
 8.276507e-04  -1.774546e-04  0 
 2.006245e-03  -3.741195e-04  0 
 2.776149e-03  -6.963826e-04  0 
 -3.894606e-04  -3.528737e-04  0 
 4.294647e-04  -1.860044e-03  0 
 1.505758e-03  -1.801554e-03  0 
 1.571323e-04  -8.641727e-04  0 
 9.828280e-04  -9.600676e-04  0 
 7.100452e-05  -9.707998e-04  0 
 3.630570e-04  -2.273587e-03  0 
 6.094170e-04  -3.073984e-03  0 
 1.118018e-03  -1.561092e-03  0 
 2.124793e-03  -1.769198e-03  0 
 1.367998e-03  -2.564363e-03  0 
 2.405258e-03  -2.886464e-03  0 
 3.064700e-03  -1.867018e-03  0 
 1.816906e-04  -1.423652e-03  0 
VECTORS displacement_ITER17 FLOAT
 -7.952133e-04  -3.547286e-04  0 
 4.006270e-03  -8.316397e-04  0 
 -1.065153e-03  -1.409927e-03  0 
 1.066843e-04  -1.187706e-04  0 
 2.423706e-03  -1.867954e-03  0 
 7.561753e-04  -5.830799e-04  0 
 1.946935e-03  -7.502266e-04  0 
 3.003322e-03  -8.262783e-04  0 
 -5.515875e-04  -1.793966e-03  0 
 -4.280700e-04  -3.102215e-03  0 
 3.999168e-03  -1.839845e-03  0 
 3.983728e-03  -2.848288e-03  0 
 -3.121271e-04  -7.746631e-04  0 
 2.311048e-03  -8.535510e-04  0 
 9.976382e-04  -9.099372e-05  0 
 2.255975e-03  -3.300327e-04  0 
 3.017443e-03  -6.784646e-04  0 
 -2.351201e-04  -2.279859e-04  0 
 6.944453e-05  -1.900967e-03  0 
 7.747971e-04  -2.148197e-03  0 
 6.656197e-06  -1.173961e-03  0 
 4.842131e-04  -1.406314e-03  0 
 -1.153667e-04  -9.728581e-04  0 
 4.422221e-04  -2.258327e-03  0 
 7.015334e-04  -3.107128e-03  0 
 1.243046e-03  -1.502685e-03  0 
 2.317716e-03  -1.723563e-03  0 
 1.508915e-03  -2.570157e-03  0 
 2.621711e-03  -2.924097e-03  0 
 3.329035e-03  -1.830340e-03  0 
 2.540156e-04  -1.358800e-03  0 
VECTORS displacement_ITER18 FLOAT
 4.026605e-04  3.097499e-04  0 
 3.102878e-03  -1.798745e-04  0 
 1.322641e-04  1.538474e-05  0 
 5.445060e-04  5.476592e-04  0 
 1.331190e-03  -2.126930e-03  0 
 1.434750e-03  7.647415e-05  0 
 2.100761e-03  -9.549200e-05  0 
 2.629334e-03  -1.739772e-04  0 
 6.463991e-04  -6.133449e-04  0 
 7.686801e-04  -1.404860e-03  0 
 3.095776e-03  -6.587417e-04  0 
 3.079994e-03  -1.138120e-03  0 
 3.767484e-04  3.558807e-04  0 
 1.836439e-03  -1.276359e-03  0 
 1.422224e-03  1.783683e-04  0 
 2.153303e-03  -1.584650e-04  0 
 2.457363e-03  -4.716645e-04  0 
 7.079478e-04  3.510584e-04  0 
 3.168861e-04  -1.430324e-03  0 
 -1.615693e-04  -3.064616e-03  0 
 -6.152134e-04  -1.199946e-03  0 
 -7.907428e-04  -2.527074e-03  0 
 5.522399e-04  -2.475440e-04  0 
 1.270813e-03  -9.188923e-04  0 
 1.432244e-03  -1.404685e-03  0 
 1.730916e-03  -4.847904e-04  0 
 2.301044e-03  -6.129588e-04  0 
 1.877751e-03  -1.074804e-03  0 
 2.433913e-03  -1.198411e-03  0 
 2.781170e-03  -6.582962e-04  0 
 1.133307e-03  -3.863708e-04  0 
VECTORS displacement_ITER19 FLOAT
 5.359493e-04  1.808430e-05  0 
 3.009092e-03  -4.729618e-04  0 
 2.666350e-04  2.500694e-04  0 
 1.531394e-04  2.560359e-04  0 
 1.094243e-03  -2.531273e-03  0 
 1.511131e-03  -2.157545e-04  0 
 2.120362e-03  -3.881323e-04  0 
 2.592249e-03  -4.668073e-04  0 
 7.796416e-04  -8.486849e-04  0 
 9.029841e-04  -1.582749e-03  0 
 3.002049e-03  -8.950787e-04  0 
 2.986236e-03  -1.317744e-03  0 
 1.588922e-04  3.850533e-04  0 
 1.712221e-03  -1.645792e-03  0 
 1.468589e-03  -7.451963e-05  0 
 2.124900e-03  -4.379716e-04  0 
 2.366404e-03  -7.744579e-04  0 
 8.514971e-04  1.880667e-04  0 
 2.632472e-04  -1.275087e-03  0 
 -4.310812e-05  -2.340798e-03  0 
 -3.776146e-04  -9.322360e-04  0 
 -4.259206e-04  -1.911522e-03  0 
 3.709897e-04  -4.546455e-04  0 
 1.363610e-03  -1.137562e-03  0 
 1.514718e-03  -1.584087e-03  0 
 1.786591e-03  -7.383370e-04  0 
 2.302300e-03  -8.566479e-04  0 
 1.920529e-03  -1.277063e-03  0 
 2.416955e-03  -1.376539e-03  0 
 2.725598e-03  -8.955820e-04  0 
 1.231594e-03  -6.446035e-04  0 
VECTORS displacement_ITER20 FLOAT
 2.598716e-04  -6.060348e-04  0 
 3.468998e-03  -1.085806e-03  0 
 -7.269180e-06  -4.610881e-04  0 
 -3.412993e-05  -3.700157e-04  0 
 1.932516e-03  -2.341728e-03  0 
 1.412921e-03  -8.360401e-04  0 
 2.205323e-03  -1.004211e-03  0 
 2.863640e-03  -1.080354e-03  0 
 5.028636e-04  -1.649199e-03  0 
 6.281628e-04  -2.559095e-03  0 
 3.461593e-03  -1.696181e-03  0 
 3.445625e-03  -2.306807e-03  0 
 -5.725153e-05  -2.945962e-04  0 
 2.124800e-03  -1.494695e-03  0 
 1.501448e-03  -4.501638e-04  0 
 2.316240e-03  -7.682274e-04  0 
 2.746343e-03  -1.099151e-03  0 
 7.137904e-04  -3.110333e-04  0 
 4.826078e-04  -1.220174e-03  0 
 1.116743e-03  -7.415037e-04  0 
 7.665035e-04  -5.678551e-04  0 
 1.228132e-03  -3.954543e-04  0 
 2.009969e-04  -9.857124e-04  0 
 1.213100e-03  -1.993520e-03  0 
 1.398415e-03  -2.565551e-03  0 
 1.754093e-03  -1.482630e-03  0 
 2.446792e-03  -1.632872e-03  0 
 1.929346e-03  -2.188230e-03  0 
 2.622401e-03  -2.370869e-03  0 
 3.058705e-03  -1.693707e-03  0 
 1.063862e-03  -1.373503e-03  0 
VECTORS displacement_ITER21 FLOAT
 4.837678e-04  -7.783550e-04  0 
 3.088033e-03  -1.253091e-03  0 
 2.177344e-04  -4.250115e-04  0 
 -1.796404e-05  -5.433874e-04  0 
 2.140601e-03  -1.906323e-03  0 
 1.483528e-03  -1.007304e-03  0 
 2.123842e-03  -1.173989e-03  0 
 2.631624e-03  -1.248595e-03  0 
 7.265352e-04  -1.668040e-03  0 
 8.525249e-04  -2.424234e-03  0 
 3.079967e-03  -1.714300e-03  0 
 3.063433e-03  -2.175529e-03  0 
 2.813499e-05  -3.409876e-04  0 
 2.066321e-03  -1.270974e-03  0 
 1.531527e-03  -6.137873e-04  0 
 2.173600e-03  -9.225986e-04  0 
 2.550459e-03  -1.192020e-03  0 
 8.701774e-04  -4.373550e-04  0 
 7.250994e-04  -1.161178e-03  0 
 1.453239e-03  -5.050267e-04  0 
 9.539738e-04  -4.343065e-04  0 
 1.520780e-03  -1.991204e-04  0 
 3.464587e-04  -1.076206e-03  0 
 1.327157e-03  -1.966024e-03  0 
 1.484060e-03  -2.431348e-03  0 
 1.768509e-03  -1.548862e-03  0 
 2.315793e-03  -1.671571e-03  0 
 1.909045e-03  -2.116064e-03  0 
 2.442913e-03  -2.234702e-03  0 
 2.777233e-03  -1.714806e-03  0 
 1.193007e-03  -1.453721e-03  0 
VECTORS displacement_ITER22 FLOAT
 9.344261e-04  -9.099025e-04  0 
 2.294696e-03  -1.383515e-03  0 
 6.687617e-04  -9.995916e-05  0 
 -2.482822e-05  -6.762758e-04  0 
 1.739046e-03  -1.880703e-03  0 
 1.623436e-03  -1.139184e-03  0 
 1.951838e-03  -1.305935e-03  0 
 2.148452e-03  -1.379670e-03  0 
 1.177360e-03  -1.488966e-03  0 
 1.303234e-03  -1.934842e-03  0 
 2.286258e-03  -1.534476e-03  0 
 2.269418e-03  -1.685408e-03  0 
 1.734907e-04  -1.945791e-04  0 
 1.646791e-03  -1.436412e-03  0 
 1.514699e-03  -8.814058e-04  0 
 1.834601e-03  -1.211189e-03  0 
 2.016719e-03  -1.420852e-03  0 
 1.136438e-03  -5.527911e-04  0 
 7.741046e-04  -1.453552e-03  0 
 9.469122e-04  -1.664335e-03  0 
 2.322558e-04  -7.756959e-04  0 
 6.039510e-04  -1.306286e-03  0 
 5.371506e-04  -1.159579e-03  0 
 1.556257e-03  -1.692035e-03  0 
 1.654970e-03  -1.939829e-03  0 
 1.794201e-03  -1.466625e-03  0 
 2.042364e-03  -1.533585e-03  0 
 1.863864e-03  -1.749847e-03  0 
 2.068937e-03  -1.734631e-03  0 
 2.191768e-03  -1.540483e-03  0 
 1.452450e-03  -1.399417e-03  0 
VECTORS displacement_ITER23 FLOAT
 9.068535e-04  -1.387728e-03  0 
 2.647477e-03  -1.853283e-03  0 
 6.422237e-04  -6.437861e-04  0 
 1.298637e-05  -1.156639e-03  0 
 2.024718e-03  -2.217282e-03  0 
 1.686451e-03  -1.614439e-03  0 
 2.108865e-03  -1.778010e-03  0 
 2.402569e-03  -1.849564e-03  0 
 1.149591e-03  -2.056174e-03  0 
 1.276381e-03  -2.591612e-03  0 
 2.639439e-03  -2.102927e-03  0 
 2.623276e-03  -2.352624e-03  0 
 1.908848e-04  -7.146374e-04  0 
 1.830863e-03  -1.671234e-03  0 
 1.589826e-03  -1.257145e-03  0 
 2.001604e-03  -1.559242e-03  0 
 2.270870e-03  -1.792441e-03  0 
 1.123016e-03  -9.759358e-04  0 
 7.947479e-04  -1.980193e-03  0 
 1.045799e-03  -2.161039e-03  0 
 1.792961e-04  -1.154445e-03  0 
 6.503745e-04  -1.700515e-03  0 
 5.372898e-04  -1.636023e-03  0 
 1.592658e-03  -2.287334e-03  0 
 1.708870e-03  -2.598492e-03  0 
 1.890648e-03  -2.005088e-03  0 
 2.230057e-03  -2.088378e-03  0 
 1.981559e-03  -2.373843e-03  0 
 2.288808e-03  -2.403576e-03  0 
 2.478446e-03  -2.106882e-03  0 
 1.480007e-03  -1.930204e-03  0 
VECTORS displacement_ITER24 FLOAT
 1.130367e-03  -1.292329e-03  0 
 2.740520e-03  -1.753349e-03  0 
 8.663621e-04  -7.107518e-04  0 
 3.996310e-04  -1.061755e-03  0 
 2.192561e-03  -1.964464e-03  0 
 1.874309e-03  -1.518464e-03  0 
 2.263170e-03  -1.680039e-03  0 
 2.525539e-03  -1.749932e-03  0 
 1.373224e-03  -1.925350e-03  0 
 1.501110e-03  -2.424385e-03  0 
 2.732628e-03  -1.973064e-03  0 
 2.716790e-03  -2.192928e-03  0 
 5.241261e-04  -7.194863e-04  0 
 1.925177e-03  -1.409404e-03  0 
 1.742512e-03  -1.142434e-03  0 
 2.111030e-03  -1.417661e-03  0 
 2.376982e-03  -1.648868e-03  0 
 1.284565e-03  -8.944869e-04  0 
 1.095049e-03  -1.848063e-03  0 
 1.373023e-03  -1.992059e-03  0 
 3.675679e-04  -9.896563e-04  0 
 8.895159e-04  -1.552681e-03  0 
 8.476012e-04  -1.478235e-03  0 
 1.790436e-03  -2.146277e-03  0 
 1.900299e-03  -2.432768e-03  0 
 2.065596e-03  -1.885243e-03  0 
 2.373527e-03  -1.962277e-03  0 
 2.148748e-03  -2.223548e-03  0 
 2.422692e-03  -2.241851e-03  0 
 2.591548e-03  -1.977352e-03  0 
 1.681345e-03  -1.813622e-03  0 
VECTORS displacement_ITER25 FLOAT
 1.056247e-03  -1.207062e-03  0 
 2.824462e-03  -1.661783e-03  0 
 7.927899e-04  -9.282580e-04  0 
 6.295590e-04  -9.766984e-04  0 
 2.152076e-03  -1.850039e-03  0 
 1.835383e-03  -1.432214e-03  0 
 2.262661e-03  -1.590765e-03  0 
 2.566434e-03  -1.658452e-03  0 
 1.299544e-03  -1.875199e-03  0 
 1.429482e-03  -2.407624e-03  0 
 2.817054e-03  -1.924614e-03  0 
 2.801965e-03  -2.187766e-03  0 
 6.538395e-04  -8.202455e-04  0 
 1.872490e-03  -1.203483e-03  0 
 1.697858e-03  -1.003212e-03  0 
 2.093977e-03  -1.243524e-03  0 
 2.391292e-03  -1.499519e-03  0 
 1.185163e-03  -8.313326e-04  0 
 1.253831e-03  -1.589852e-03  0 
 1.767487e-03  -1.354457e-03  0 
 6.920580e-04  -6.419035e-04  0 
 1.347278e-03  -9.523353e-04  0 
 9.436406e-04  -1.310453e-03  0 
 1.740993e-03  -2.107916e-03  0 
 1.857885e-03  -2.419112e-03  0 
 2.039772e-03  -1.824116e-03  0 
 2.385574e-03  -1.907475e-03  0 
 2.131336e-03  -2.197422e-03  0 
 2.448962e-03  -2.236512e-03  0 
 2.646750e-03  -1.927726e-03  0 
 1.628556e-03  -1.749516e-03  0 
VECTORS displacement_ITER26 FLOAT
 1.067974e-03  -1.022398e-03  0 
 2.582917e-03  -1.471934e-03  0 
 8.044678e-04  -8.923329e-04  0 
 7.902833e-04  -7.923061e-04  0 
 1.805874e-03  -1.878427e-03  0 
 1.780788e-03  -1.246759e-03  0 
 2.143710e-03  -1.402905e-03  0 
 2.385518e-03  -1.468678e-03  0 
 1.311735e-03  -1.623905e-03  0 
 1.443020e-03  -2.088646e-03  0 
 2.575999e-03  -1.674249e-03  0 
 2.561650e-03  -1.877106e-03  0 
 7.655087e-04  -7.269213e-04  0 
 1.654503e-03  -1.232432e-03  0 
 1.610435e-03  -8.949673e-04  0 
 1.944076e-03  -1.133972e-03  0 
 2.177490e-03  -1.389331e-03  0 
 1.147736e-03  -7.243188e-04  0 
 1.270693e-03  -1.448719e-03  0 
 1.637753e-03  -1.428528e-03  0 
 6.306339e-04  -5.848648e-04  0 
 1.169565e-03  -1.047279e-03  0 
 1.029039e-03  -1.098168e-03  0 
 1.705031e-03  -1.836924e-03  0 
 1.809642e-03  -2.101261e-03  0 
 1.960788e-03  -1.593383e-03  0 
 2.245675e-03  -1.664636e-03  0 
 2.037351e-03  -1.907862e-03  0 
 2.289766e-03  -1.922531e-03  0 
 2.446034e-03  -1.677938e-03  0 
 1.599203e-03  -1.525059e-03  0 
VECTORS displacement_ITER27 FLOAT
 1.148667e-03  -8.164102e-04  0 
 2.105899e-03  -1.262956e-03  0 
 8.845102e-04  -5.051236e-04  0 
 6.893558e-04  -5.861668e-04  0 
 1.539032e-03  -1.673972e-03  0 
 1.721301e-03  -1.040704e-03  0 
 1.943776e-03  -1.195766e-03  0 
 2.046465e-03  -1.260160e-03  0 
 1.393163e-03  -1.277217e-03  0 
 1.525174e-03  -1.600705e-03  0 
 2.098959e-03  -1.327336e-03  0 
 2.084732e-03  -1.392356e-03  0 
 7.245114e-04  -4.100607e-04  0 
 1.420875e-03  -1.178687e-03  0 
 1.515568e-03  -7.969749e-04  0 
 1.711863e-03  -1.058908e-03  0 
 1.844463e-03  -1.271984e-03  0 
 1.185863e-03  -5.554119e-04  0 
 1.162846e-03  -1.424252e-03  0 
 1.156673e-03  -2.028922e-03  0 
 2.341790e-04  -6.675511e-04  0 
 5.363373e-04  -1.607404e-03  0 
 1.016709e-03  -9.245464e-04  0 
 1.685689e-03  -1.447431e-03  0 
 1.763866e-03  -1.612491e-03  0 
 1.849431e-03  -1.290481e-03  0 
 1.999919e-03  -1.336169e-03  0 
 1.893735e-03  -1.476820e-03  0 
 1.999344e-03  -1.432671e-03  0 