# vtk DataFile Version 3.1
this is an vtk file created by FEMAC
ASCII
DATASET UNSTRUCTURED_GRID
POINTS 31 FLOAT
4.000000 6.000000 0.000000
5.000000 5.000000 0.000000
5.000000 6.000000 0.000000
3.500000 6.000000 0.000000
3.750000 6.000000 0.000000
4.000000 5.500000 0.000000
4.000000 5.750000 0.000000
4.500000 5.000000 0.000000
4.750000 5.000000 0.000000
4.250000 6.000000 0.000000
4.500000 6.000000 0.000000
4.750000 6.000000 0.000000
5.000000 5.250000 0.000000
5.000000 5.500000 0.000000
5.000000 5.750000 0.000000
3.745000 5.805000 0.000000
3.757141 5.565925 0.000000
3.546713 5.717271 0.000000
4.500000 5.500000 0.000000
4.805000 5.745000 0.000000
4.745000 5.195000 0.000000
4.255000 5.805000 0.000000
4.195000 5.255000 0.000000
4.799000 5.384000 0.000000
4.616000 5.799000 0.000000
4.384000 5.201000 0.000000
4.201000 5.616000 0.000000
4.325714 5.438857 0.000000
4.433602 5.681622 0.000000
4.555888 5.333051 0.000000
4.672784 5.563239 0.000000
CELLS 42 168 
3 3 15  4
3 6 16  5
3 17 16 15
3 15 16  6
3 3 17 15
3 15  0  4
3 6  0 15
3 19 13 14
3 20  7  8
3 21 10  9
3 26  6  5
3 23 12 13
3 24 11 10
3 23 29 20
3 24 30 19
3 25 27 22
3 26 28 21
3 23 20 12
3 24 19 11
3 26 21  6
3 27  5 22
3 26  5 27
3 18 28 27
3 26 27 28
3 29  7 20
3 25  7 29
3 18 27 29
3 25 29 27
3 28 10 21
3 24 10 28
3 18 30 28
3 24 28 30
3 30 13 19
3 23 13 30
3 18 29 30
3 23 30 29
3 1 20  8
3 1 12 20
3 19  2 11
3 14  2 19
3 21  0  6
3 9  0 21
CELL_TYPES 42
5 5 5 5 5 5 5 5 5 5 5 5 5 5 5 5 5 5 5 5 5 5 5 5 5 5 5 5 5 5 5 5 5 5 5 5 5 5 5 5 5 5 
POINT_DATA 31
VECTORS displacement_ITER1 FLOAT
 1.765812e-01  -2.486708e-01  0 
 1.362419e-01  -3.134257e-01  0 
 2.284060e-01  -3.621793e-01  0 
 1.765443e-01  -2.108039e-01  0 
 1.765637e-01  -2.297360e-01  0 
 1.387480e-01  -2.486083e-01  0 
 1.576476e-01  -2.486460e-01  0 
 1.245570e-01  -2.722305e-01  0 
 1.290273e-01  -2.916933e-01  0 
 1.894263e-01  -2.796083e-01  0 
 2.005160e-01  -3.046123e-01  0 
 2.144037e-01  -3.311047e-01  0 
 1.537493e-01  -3.242578e-01  0 
 1.701197e-01  -3.332563e-01  0 
 1.960355e-01  -3.482997e-01  0 
 1.617972e-01  -2.293425e-01  0 
 1.437029e-01  -2.302512e-01  0 
 1.551482e-01  -2.143282e-01  0 
 1.563186e-01  -2.841998e-01  0 
 1.873615e-01  -3.233943e-01  0 
 1.417192e-01  -2.973760e-01  0 
 1.696023e-01  -2.720148e-01  0 
 1.359779e-01  -2.542958e-01  0 
 1.567229e-01  -3.094584e-01  0 
 1.853838e-01  -3.063999e-01  0 
 1.356902e-01  -2.669311e-01  0 
 1.529100e-01  -2.638576e-01  0 
 1.469496e-01  -2.668890e-01  0 
 1.664585e-01  -2.837235e-01  0 
 1.466511e-01  -2.839000e-01  0 
 1.661195e-01  -3.022222e-01  0 
VECTORS displacement_ITER2 FLOAT
 1.516308e-01  -1.917730e-01  0 
 1.084465e-01  -2.496110e-01  0 
 2.078754e-01  -2.722210e-01  0 
 1.516000e-01  -1.698717e-01  0 
 1.516155e-01  -1.808211e-01  0 
 1.297578e-01  -1.917071e-01  0 
 1.406768e-01  -1.917491e-01  0 
 1.062878e-01  -1.962886e-01  0 
 1.062773e-01  -2.201177e-01  0 
 1.658502e-01  -2.148144e-01  0 
 1.786528e-01  -2.329363e-01  0 
 1.933182e-01  -2.516753e-01  0 
 1.362440e-01  -2.536594e-01  0 
 1.595897e-01  -2.536873e-01  0 
 1.821059e-01  -2.621896e-01  0 
 1.430738e-01  -1.805896e-01  0 
 1.326098e-01  -1.811157e-01  0 
 1.392280e-01  -1.719077e-01  0 
 1.455124e-01  -2.089956e-01  0 
 1.744643e-01  -2.424802e-01  0 
 1.265388e-01  -2.220927e-01  0 
 1.514796e-01  -2.056678e-01  0 
 1.255384e-01  -1.841894e-01  0 
 1.456731e-01  -2.317145e-01  0 
 1.699639e-01  -2.304605e-01  0 
 1.234992e-01  -1.909720e-01  0 
 1.395920e-01  -1.978583e-01  0 
 1.369187e-01  -1.952044e-01  0 
 1.526696e-01  -2.112719e-01  0 
 1.361285e-01  -2.075028e-01  0 
 1.554152e-01  -2.243602e-01  0 
VECTORS displacement_ITER3 FLOAT
 1.102627e-01  -1.295928e-01  0 
 6.303082e-02  -1.757084e-01  0 
 1.672830e-01  -1.624583e-01  0 
 1.102441e-01  -1.261296e-01  0 
 1.102522e-01  -1.278602e-01  0 
 1.068219e-01  -1.295254e-01  0 
 1.085243e-01  -1.295727e-01  0 
 7.420753e-02  -1.153326e-01  0 
 6.829472e-02  -1.411282e-01  0 
 1.245111e-01  -1.416579e-01  0 
 1.381372e-01  -1.504202e-01  0 
 1.526657e-01  -1.579133e-01  0 
 1.010420e-01  -1.708327e-01  0 
 1.330188e-01  -1.606607e-01  0 
 1.510023e-01  -1.592412e-01  0 
 1.088989e-01  -1.278178e-01  0 
 1.072449e-01  -1.279031e-01  0 
 1.082907e-01  -1.264483e-01  0 
 1.198759e-01  -1.239242e-01  0 
 1.453403e-01  -1.474596e-01  0 
 9.535462e-02  -1.371327e-01  0 
 1.172655e-01  -1.316575e-01  0 
 1.013746e-01  -1.070067e-01  0 
 1.185465e-01  -1.421000e-01  0 
 1.378479e-01  -1.427421e-01  0 
 9.746213e-02  -1.075230e-01  0 
 1.114670e-01  -1.247647e-01  0 
 1.126449e-01  -1.154286e-01  0 
 1.233882e-01  -1.293504e-01  0 
 1.106491e-01  -1.215703e-01  0 
 1.293688e-01  -1.345853e-01  0 
VECTORS displacement_ITER4 FLOAT
 9.626386e-02  -1.096367e-01  0 
 4.946122e-02  -1.442212e-01  0 
 1.446934e-01  -1.280464e-01  0 
 9.625667e-02  -1.028352e-01  0 
 9.625884e-02  -1.062352e-01  0 
 8.948592e-02  -1.095769e-01  0 
 9.285737e-02  -1.096231e-01  0 
 6.226166e-02  -1.002268e-01  0 
 5.614577e-02  -1.185051e-01  0 
 1.068531e-01  -1.186861e-01  0 
 1.179183e-01  -1.253428e-01  0 
 1.307471e-01  -1.292628e-01  0 
 8.252770e-02  -1.401923e-01  0 
 1.139880e-01  -1.321061e-01  0 
 1.310714e-01  -1.280326e-01  0 
 9.360315e-02  -1.061641e-01  0 
 9.034840e-02  -1.063336e-01  0 
 9.240994e-02  -1.034686e-01  0 
 1.025555e-01  -1.013422e-01  0 
 1.263981e-01  -1.192659e-01  0 
 7.828842e-02  -1.131420e-01  0 
 1.003907e-01  -1.108898e-01  0 
 8.581383e-02  -8.772629e-02  0 
 9.967990e-02  -1.158834e-01  0 
 1.188281e-01  -1.172549e-01  0 
 8.264775e-02  -8.897158e-02  0 
 9.472172e-02  -1.048184e-01  0 
 9.585999e-02  -9.497085e-02  0 
 1.059267e-01  -1.070829e-01  0 
 9.320995e-02  -9.934291e-02  0 
 1.112883e-01  -1.091065e-01  0 
VECTORS displacement_ITER5 FLOAT
 9.247974e-02  -6.192165e-02  0 
 4.884035e-02  -8.014114e-02  0 
 1.208473e-01  -8.749364e-02  0 
 9.248764e-02  -3.203876e-02  0 
 9.248262e-02  -4.697957e-02  0 
 6.262278e-02  -6.188264e-02  0 
 7.753658e-02  -6.192081e-02  0 
 5.394298e-02  -8.331288e-02  0 
 5.245216e-02  -8.095428e-02  0 
 9.465478e-02  -7.338123e-02  0 
 9.916205e-02  -8.321529e-02  0 
 1.082334e-01  -8.865630e-02  0 
 6.126585e-02  -8.622596e-02  0 
 8.435270e-02  -9.200328e-02  0 
 1.043528e-01  -8.980489e-02  0 
 8.082607e-02  -4.668354e-02  0 
 6.652753e-02  -4.741418e-02  0 
 7.558208e-02  -3.482920e-02  0 
 7.688346e-02  -6.798632e-02  0 
 1.003933e-01  -8.092216e-02  0 
 5.683251e-02  -7.730537e-02  0 
 8.390179e-02  -7.134837e-02  0 
 6.272503e-02  -5.579842e-02  0 
 7.078099e-02  -7.843292e-02  0 
 9.538444e-02  -7.878927e-02  0 
 6.265584e-02  -6.482419e-02  0 
 7.339065e-02  -6.658619e-02  0 
 7.042951e-02  -6.217033e-02  0 
 8.357755e-02  -7.116807e-02  0 
 6.646184e-02  -6.820727e-02  0 
 8.409773e-02  -7.290519e-02  0 
VECTORS displacement_ITER6 FLOAT
 7.524468e-02  -5.585817e-02  0 
 5.327390e-02  -5.752990e-02  0 
 1.029416e-01  -7.424119e-02  0 
 7.524684e-02  -3.145821e-02  0 
 7.524477e-02  -4.365584e-02  0 
 5.086447e-02  -5.581986e-02  0 
 6.304222e-02  -5.585631e-02  0 
 5.443410e-02  -8.579406e-02  0 
 5.509600e-02  -7.238112e-02  0 
 7.730971e-02  -6.574824e-02  0 
 8.130068e-02  -7.340118e-02  0 
 9.004952e-02  -7.720139e-02  0 
 5.339420e-02  -6.676107e-02  0 
 6.822214e-02  -7.771725e-02  0 
 8.686434e-02  -7.699919e-02  0 
 6.572661e-02  -4.341170e-02  0 
 5.404746e-02  -4.400319e-02  0 
 6.144221e-02  -3.373115e-02  0 
 6.309245e-02  -6.215746e-02  0 
 8.296726e-02  -6.941467e-02  0 
 4.951784e-02  -6.905598e-02  0 
 6.843395e-02  -6.404100e-02  0 
 5.405238e-02  -5.569760e-02  0 
 5.716432e-02  -6.824661e-02  0 
 7.838304e-02  -6.882616e-02  0 
 5.557803e-02  -6.569167e-02  0 
 6.030167e-02  -6.087283e-02  0 
 5.819669e-02  -5.896858e-02  0 
 6.823777e-02  -6.374568e-02  0 
 5.476961e-02  -6.375159e-02  0 
 6.836850e-02  -6.388607e-02  0 
VECTORS displacement_ITER7 FLOAT
 5.046402e-02  -3.756467e-02  0 
 4.086270e-02  -3.888039e-02  0 
 9.004601e-02  -4.953716e-02  0 
 5.045071e-02  -2.995793e-02  0 
 5.045607e-02  -3.375631e-02  0 
 4.286392e-02  -3.751539e-02  0 
 4.665355e-02  -3.755462e-02  0 
 4.242262e-02  -6.203690e-02  0 
 4.250387e-02  -5.091159e-02  0 
 5.752279e-02  -4.584740e-02  0 
 6.498119e-02  -5.082595e-02  0 
 7.572713e-02  -5.348391e-02  0 
 4.315578e-02  -4.542348e-02  0 
 5.608787e-02  -5.288771e-02  0 
 7.382780e-02  -5.212610e-02  0 
 4.748636e-02  -3.367300e-02  0 
 4.383614e-02  -3.384925e-02  0 
 4.614598e-02  -3.065438e-02  0 
 5.142203e-02  -3.894024e-02  0 
 6.966793e-02  -4.465978e-02  0 
 3.916041e-02  -4.676823e-02  0 
 5.200606e-02  -4.099426e-02  0 
 4.384343e-02  -3.602967e-02  0 
 4.649369e-02  -4.520420e-02  0 
 6.441647e-02  -4.465055e-02  0 
 4.461259e-02  -4.359954e-02  0 
 4.808997e-02  -3.842613e-02  0 
 4.759215e-02  -3.720651e-02  0 
 5.455439e-02  -3.968082e-02  0 
 4.435203e-02  -4.129577e-02  0 
 5.608505e-02  -4.008171e-02  0 
VECTORS displacement_ITER8 FLOAT
 3.750411e-02  -2.652541e-02  0 
 2.767366e-02  -3.545403e-02  0 
 8.440151e-02  -3.488313e-02  0 
 3.748240e-02  -2.837611e-02  0 
 3.749167e-02  -2.744441e-02  0 
 3.935536e-02  -2.646710e-02  0 
 3.841947e-02  -2.650995e-02  0 
 3.157675e-02  -4.189729e-02  0 
 3.004308e-02  -3.827739e-02  0 
 4.786068e-02  -3.420124e-02  0 
 5.764754e-02  -3.798021e-02  0 
 6.952087e-02  -3.981821e-02  0 
 3.768261e-02  -3.760158e-02  0 
 5.222634e-02  -3.931170e-02  0 
 6.882273e-02  -3.753158e-02  0 
 3.820961e-02  -2.745183e-02  0 
 3.908147e-02  -2.739506e-02  0 
 3.852765e-02  -2.818552e-02  0 
 4.662426e-02  -2.412093e-02  0 
 6.466274e-02  -3.042923e-02  0 
 3.335484e-02  -3.310600e-02  0 
 4.412543e-02  -2.724351e-02  0 
 3.791204e-02  -2.154026e-02  0 
 4.302094e-02  -3.187411e-02  0 
 5.871835e-02  -3.071040e-02  0 
 3.766850e-02  -2.635906e-02  0 
 4.225927e-02  -2.439535e-02  0 
 4.277418e-02  -2.245008e-02  0 
 4.868618e-02  -2.514542e-02  0 
 4.001354e-02  -2.614527e-02  0 
 5.171939e-02  -2.600715e-02  0 
VECTORS displacement_ITER9 FLOAT
 2.732746e-02  -2.707378e-02  0 
 2.109366e-02  -3.910385e-02  0 
 7.457941e-02  -2.459226e-02  0 
 2.730244e-02  -3.507591e-02  0 
 2.731316e-02  -3.106770e-02  0 
 3.533169e-02  -2.700712e-02  0 
 3.131779e-02  -2.705510e-02  0 
 2.714265e-02  -2.763485e-02  0 
 2.395304e-02  -3.216232e-02  0 
 3.873904e-02  -3.319689e-02  0 
 4.894100e-02  -3.486909e-02  0 
 6.038028e-02  -3.343215e-02  0 
 3.820708e-02  -3.544049e-02  0 
 5.182382e-02  -3.050204e-02  0 
 6.336537e-02  -2.751980e-02  0 
 3.042966e-02  -3.113501e-02  0 
 3.424315e-02  -3.092639e-02  0 
 3.182644e-02  -3.430929e-02  0 
 4.406732e-02  -1.934243e-02  0 
 5.959539e-02  -2.371291e-02  0 
 3.374082e-02  -2.604858e-02  0 
 3.711634e-02  -2.573337e-02  0 
 3.528887e-02  -1.802093e-02  0 
 4.417334e-02  -2.545131e-02  0 
 5.272789e-02  -2.631556e-02  0 
 3.521653e-02  -1.817496e-02  0 
 3.705374e-02  -2.257672e-02  0 
 3.984324e-02  -1.847472e-02  0 
 4.381018e-02  -2.194125e-02  0 
 3.984552e-02  -1.956133e-02  0 
 4.957543e-02  -2.083202e-02  0 
VECTORS displacement_ITER10 FLOAT
 1.997415e-02  -2.088725e-02  0 
 1.450379e-02  -3.167670e-02  0 
 6.057524e-02  -2.074403e-02  0 
 1.995432e-02  -1.907053e-02  0 
 1.996256e-02  -1.997207e-02  0 
 1.816999e-02  -2.081883e-02  0 
 1.905762e-02  -2.087071e-02  0 
 1.679423e-02  -1.624172e-02  0 
 1.503275e-02  -2.277230e-02  0 
 2.879028e-02  -2.870970e-02  0 
 3.684556e-02  -3.180708e-02  0 
 4.704050e-02  -2.997364e-02  0 
 3.143345e-02  -2.843101e-02  0 
 4.217921e-02  -2.375276e-02  0 
 5.105250e-02  -2.246818e-02  0 
 1.924999e-02  -1.994336e-02  0 
 1.836821e-02  -1.997327e-02  0 
 1.892390e-02  -1.922272e-02  0 
 3.172833e-02  -1.574592e-02  0 
 4.700172e-02  -2.019615e-02  0 
 2.550027e-02  -1.850273e-02  0 
 2.541834e-02  -2.318836e-02  0 
 2.183559e-02  -1.277444e-02  0 
 3.507390e-02  -1.980580e-02  0 
 4.005746e-02  -2.372364e-02  0 
 2.333607e-02  -1.151675e-02  0 
 2.297859e-02  -1.931470e-02  0 
 2.609528e-02  -1.420769e-02  0 
 3.130042e-02  -1.978355e-02  0 
 2.901766e-02  -1.396979e-02  0 
 3.810136e-02  -1.741056e-02  0 
VECTORS displacement_ITER11 FLOAT
 2.041862e-02  -1.925750e-02  0 
 1.924856e-02  -2.486878e-02  0 
 5.672384e-02  -2.372708e-02  0 
 2.040239e-02  -9.238203e-03  0 
 2.040898e-02  -1.424126e-02  0 
 1.041895e-02  -1.918930e-02  0 
 1.540277e-02  -1.924303e-02  0 
 1.604487e-02  -1.414417e-02  0 
 1.682869e-02  -1.865761e-02  0 
 2.717340e-02  -2.865530e-02  0 
 3.361717e-02  -3.312519e-02  0 
 4.322670e-02  -3.185160e-02  0 
 3.170343e-02  -2.428476e-02  0 
 3.924798e-02  -2.254495e-02  0 
 4.729642e-02  -2.373126e-02  0 
 1.649778e-02  -1.413202e-02  0 
 1.169334e-02  -1.436106e-02  0 
 1.473226e-02  -1.015735e-02  0 
 2.722835e-02  -1.725294e-02  0 
 4.261484e-02  -2.179543e-02  0 
 2.467856e-02  -1.687530e-02  0 
 2.213208e-02  -2.464286e-02  0 
 1.708857e-02  -1.348723e-02  0 
 3.241212e-02  -1.932491e-02  0 
 3.579540e-02  -2.558018e-02  0 
 1.999068e-02  -1.205009e-02  0 
 1.772904e-02  -2.047032e-02  0 
 2.073818e-02  -1.534477e-02  0 
 2.695830e-02  -2.189018e-02  0 
 2.553489e-02  -1.441689e-02  0 
 3.395677e-02  -1.873874e-02  0 
VECTORS displacement_ITER12 FLOAT
 1.701339e-02  -1.397707e-02  0 
 1.772726e-02  -1.880922e-02  0 
 5.309222e-02  -2.251776e-02  0 
 1.699632e-02  -2.616860e-03  0 
 1.700337e-02  -8.289996e-03  0 
 5.670116e-03  -1.391069e-02  0 
 1.132657e-02  -1.396321e-02  0 
 1.074665e-02  -1.128853e-02  0 
 1.349803e-02  -1.443238e-02  0 
 2.356304e-02  -2.403789e-02  0 
 2.981280e-02  -2.915223e-02  0 
 3.943740e-02  -2.898888e-02  0 
 2.661490e-02  -1.932658e-02  0 
 3.348310e-02  -1.918429e-02  0 
 4.259664e-02  -2.151944e-02  0 
 1.256927e-02  -8.166867e-03  0 
 7.122351e-03  -8.427805e-03  0 
 1.056807e-02  -3.659973e-03  0 
 2.176797e-02  -1.435079e-02  0 
 3.751377e-02  -1.896209e-02  0 
 1.969479e-02  -1.410462e-02  0 
 1.799561e-02  -2.019811e-02  0 
 1.136646e-02  -1.085165e-02  0 
 2.657074e-02  -1.617449e-02  0 
 3.107200e-02  -2.217010e-02  0 
 1.429420e-02  -9.749074e-03  0 
 1.318027e-02  -1.620632e-02  0 
 1.529694e-02  -1.237579e-02  0 
 2.209173e-02  -1.830933e-02  0 
 1.994941e-02  -1.194757e-02  0 
 2.831394e-02  -1.571215e-02  0 
VECTORS displacement_ITER13 FLOAT
 1.168481e-02  -6.899687e-03  0 
 9.495770e-03  -1.920746e-02  0 
 5.217619e-02  -1.470632e-02  0 
 1.166026e-02  -5.660104e-03  0 
 1.167091e-02  -6.271630e-03  0 
 1.044523e-02  -6.837236e-03  0 
 1.105407e-02  -6.884145e-03  0 
 3.952749e-03  -8.816878e-03  0 
 6.480733e-03  -1.332124e-02  0 
 2.069518e-02  -1.566261e-02  0 
 2.865352e-02  -1.973184e-02  0 
 3.866068e-02  -2.036467e-02  0 
 1.866055e-02  -1.658937e-02  0 
 2.893385e-02  -1.410614e-02  0 
 4.045297e-02  -1.453468e-02  0 
 1.118344e-02  -6.246263e-03  0 
 1.057350e-02  -6.259927e-03  0 
 1.095740e-02  -5.753566e-03  0 
 2.007066e-02  -7.268933e-03  0 
 3.572571e-02  -1.109724e-02  0 
 1.395313e-02  -1.171857e-02  0 
 1.688912e-02  -1.011227e-02  0 
 9.707462e-03  -6.157221e-03  0 
 2.175376e-02  -1.106879e-02  0 
 2.989052e-02  -1.317409e-02  0 
 1.062598e-02  -5.353135e-03  0 
 1.442541e-02  -7.012460e-03  0 
 1.494334e-02  -5.981818e-03  0 
 2.113968e-02  -8.987271e-03  0 
 1.683195e-02  -7.197315e-03  0 
 2.565643e-02  -8.389747e-03  0 
VECTORS displacement_ITER14 FLOAT
 1.269595e-02  -5.245066e-03  0 
 1.085863e-02  -1.654776e-02  0 
 5.276666e-02  -1.218838e-02  0 
 1.267080e-02  -5.474580e-03  0 
 1.268175e-02  -5.351399e-03  0 
 1.292301e-02  -5.184068e-03  0 
 1.279922e-02  -5.229816e-03  0 
 6.419520e-03  -9.557733e-03  0 
 8.749581e-03  -1.273909e-02  0 
 2.176986e-02  -1.359858e-02  0 
 2.971944e-02  -1.737791e-02  0 
 3.951096e-02  -1.796769e-02  0 
 1.905042e-02  -1.396889e-02  0 
 2.965970e-02  -1.208513e-02  0 
 4.130112e-02  -1.215806e-02  0 
 1.276722e-02  -5.340421e-03  0 
 1.285919e-02  -5.318311e-03  0 
 1.279889e-02  -5.430286e-03  0 
 2.125339e-02  -5.766386e-03  0 
 3.664809e-02  -8.953130e-03  0 
 1.495184e-02  -1.045721e-02  0 
 1.831639e-02  -7.994687e-03  0 
 1.157789e-02  -5.898209e-03  0 
 2.231216e-02  -9.159005e-03  0 
 3.095178e-02  -1.099391e-02  0 
 1.239798e-02  -5.347389e-03  0 
 1.632114e-02  -5.225521e-03  0 
 1.648990e-02  -4.967906e-03  0 
 2.241946e-02  -7.030648e-03  0 
 1.784769e-02  -6.140098e-03  0 
 2.652823e-02  -6.471166e-03  0 
VECTORS displacement_ITER15 FLOAT
 1.150755e-02  -3.468129e-03  0 
 9.935141e-03  -9.669555e-03  0 
 4.933868e-02  -1.079080e-02  0 
 1.148507e-02  -1.083887e-03  0 
 1.149471e-02  -2.267915e-03  0 
 9.123971e-03  -3.407836e-03  0 
 1.030469e-02  -3.454367e-03  0 
 7.092763e-03  -1.017075e-02  0 
 9.145471e-03  -1.041074e-02  0 
 1.963919e-02  -1.194987e-02  0 
 2.691938e-02  -1.602346e-02  0 
 3.632168e-02  -1.661878e-02  0 
 1.685448e-02  -9.211494e-03  0 
 2.724126e-02  -9.820330e-03  0 
 3.850062e-02  -1.030684e-02  0 
 1.056092e-02  -2.231976e-03  0 
 9.402837e-03  -2.274228e-03  0 
 1.013427e-02  -1.284919e-03  0 
 1.801197e-02  -4.577199e-03  0 
 3.363596e-02  -7.608808e-03  0 
 1.262864e-02  -7.518666e-03  0 
 1.571748e-02  -6.948589e-03  0 
 9.138646e-03  -5.716634e-03  0 
 1.923955e-02  -6.564378e-03  0 
 2.787823e-02  -9.814379e-03  0 
 1.060787e-02  -5.519652e-03  0 
 1.321104e-02  -4.277196e-03  0 
 1.314817e-02  -4.221829e-03  0 
 1.933616e-02  -6.079551e-03  0 
 1.460258e-02  -4.623862e-03  0 
 2.337153e-02  -4.893321e-03  0 
VECTORS displacement_ITER16 FLOAT
 9.090018e-03  -5.974679e-03  0 
 6.312645e-03  -8.235324e-03  0 
 4.716170e-02  -9.655017e-03  0 
 9.070504e-03  -3.956349e-03  0 
 9.078522e-03  -4.957921e-03  0 
 7.076551e-03  -5.911918e-03  0 
 8.070608e-03  -5.961233e-03  0 
 6.596408e-03  -8.097486e-03  0 
 7.293343e-03  -8.908548e-03  0 
 1.709623e-02  -1.362661e-02  0 
 2.446909e-02  -1.705532e-02  0 
 3.403488e-02  -1.666690e-02  0 
 1.636955e-02  -8.542922e-03  0 
 2.751999e-02  -8.829500e-03  0 
 3.759903e-02  -9.031661e-03  0 
 8.287177e-03  -4.926999e-03  0 
 7.304516e-03  -4.961936e-03  0 
 7.925463e-03  -4.125396e-03  0 
 1.690605e-02  -4.090734e-03  0 
 3.263450e-02  -7.193317e-03  0 
 1.162495e-02  -5.173196e-03  0 
 1.352067e-02  -8.588657e-03  0 
 8.169843e-03  -5.889168e-03  0 
 1.903355e-02  -5.164550e-03  0 
 2.628728e-02  -1.013212e-02  0 
 9.825921e-03  -4.416105e-03  0 
 1.118135e-02  -5.726035e-03  0 
 1.178650e-02  -4.211788e-03  0 
 1.774328e-02  -6.680532e-03  0 
 1.369003e-02  -3.121930e-03  0 
 2.271733e-02  -4.331336e-03  0 
VECTORS displacement_ITER17 FLOAT
 9.163873e-03  -8.056240e-03  0 
 2.602991e-03  -1.074673e-02  0 
 4.646943e-02  -7.868419e-03  0 
 9.147274e-03  -7.282697e-03  0 
 9.153706e-03  -7.662303e-03  0 
 8.395413e-03  -7.994821e-03  0 
 8.766857e-03  -8.043826e-03  0 
 5.497630e-03  -7.796492e-03  0 
 4.890965e-03  -9.988529e-03  0 
 1.690318e-02  -1.453410e-02  0 
 2.419090e-02  -1.717932e-02  0 
 3.357077e-02  -1.601776e-02  0 
 1.542614e-02  -1.043157e-02  0 
 2.763025e-02  -9.148333e-03  0 
 3.738740e-02  -8.185255e-03  0 
 8.847601e-03  -7.645135e-03  0 
 8.460106e-03  -7.651673e-03  0 
 8.705083e-03  -7.337369e-03  0 
 1.747528e-02  -4.194925e-03  0 
 3.287532e-02  -6.750598e-03  0 
 1.088074e-02  -5.439753e-03  0 
 1.390162e-02  -9.536943e-03  0 
 8.695502e-03  -6.516733e-03  0 
 1.924522e-02  -5.476394e-03  0 
 2.651525e-02  -1.005042e-02  0 
 9.841937e-03  -4.322203e-03  0 
 1.194083e-02  -6.742960e-03  0 
 1.251035e-02  -4.636375e-03  0 
 1.832323e-02  -7.038172e-03  0 
 1.396392e-02  -3.079313e-03  0 
 2.328905e-02  -4.347091e-03  0 
VECTORS displacement_ITER18 FLOAT
 8.095566e-03  -9.776766e-03  0 
 4.443174e-03  -7.006923e-03  0 
 4.544932e-02  -1.164591e-02  0 
 8.082271e-03  -5.789932e-03  0 
 8.087051e-03  -7.776754e-03  0 
 4.119207e-03  -9.714578e-03  0 
 6.093201e-03  -9.765356e-03  0 
 4.485759e-03  -8.536490e-03  0 
 5.028391e-03  -8.595778e-03  0 
 1.508995e-02  -1.652327e-02  0 
 2.204460e-02  -1.948169e-02  0 
 3.186814e-02  -1.877644e-02  0 
 1.468595e-02  -9.256364e-03  0 
 2.520640e-02  -1.038645e-02  0 
 3.534748e-02  -1.103433e-02  0 
 6.527818e-03  -7.728975e-03  0 
 4.604384e-03  -7.814641e-03  0 
 5.821923e-03  -6.146726e-03  0 
 1.466048e-02  -5.988730e-03  0 
 3.039959e-02  -8.934580e-03  0 
 9.343459e-03  -5.672833e-03  0 
 1.141295e-02  -1.194866e-02  0 
 6.024261e-03  -7.915213e-03  0 
 1.688004e-02  -6.535645e-03  0 
 2.398745e-02  -1.220367e-02  0 
 7.641658e-03  -5.729810e-03  0 
 8.676440e-03  -9.041492e-03  0 
 9.430067e-03  -6.323808e-03  0 
 1.555135e-02  -9.257997e-03  0 
 1.141635e-02  -4.371918e-03  0 
 2.059056e-02  -6.061484e-03  0 
VECTORS displacement_ITER19 FLOAT
 7.381362e-03  -9.029258e-03  0 
 3.105713e-03  -7.480371e-03  0 
 4.452369e-02  -9.373106e-03  0 
 7.369310e-03  -6.128124e-03  0 
 7.373438e-03  -7.572345e-03  0 
 4.490135e-03  -8.968610e-03  0 
 5.921811e-03  -9.018512e-03  0 
 2.923213e-03  -8.042694e-03  0 
 3.325952e-03  -8.248883e-03  0 
 1.423293e-02  -1.505717e-02  0 
 2.113542e-02  -1.750687e-02  0 
 3.094459e-02  -1.665891e-02  0 
 1.275807e-02  -8.262386e-03  0 
 2.342218e-02  -9.122371e-03  0 
 3.395557e-02  -9.349173e-03  0 
 6.237586e-03  -7.536008e-03  0 
 4.833345e-03  -7.596265e-03  0 
 5.722604e-03  -6.384406e-03  0 
 1.403831e-02  -4.766098e-03  0 
 2.930639e-02  -7.016887e-03  0 
 8.124126e-03  -5.354961e-03  0 
 1.094021e-02  -1.050491e-02  0 
 5.632773e-03  -7.000754e-03  0 
 1.542722e-02  -5.507657e-03  0 
 2.313523e-02  -1.026577e-02  0 
 6.815444e-03  -4.865230e-03  0 
 8.560597e-03  -7.838898e-03  0 
 9.161671e-03  -5.262966e-03  0 
 1.500716e-02  -7.681044e-03  0 
 1.065723e-02  -3.601632e-03  0 
 1.958258e-02  -4.529472e-03  0 
VECTORS displacement_ITER20 FLOAT
 6.413149e-03  -7.996220e-03  0 
 1.629408e-03  -8.490626e-03  0 
 4.400172e-02  -6.826471e-03  0 
 6.401135e-03  -6.377437e-03  0 
 6.405217e-03  -7.180606e-03  0 
 4.804816e-03  -7.934637e-03  0 
 5.594708e-03  -7.985197e-03  0 
 1.901394e-03  -6.399966e-03  0 
 1.815909e-03  -7.411028e-03  0 
 1.346913e-02  -1.362922e-02  0 
 2.052811e-02  -1.569514e-02  0 
 3.040018e-02  -1.453421e-02  0 
 1.191164e-02  -7.406709e-03  0 
 2.300134e-02  -7.413337e-03  0 
 3.348286e-02  -7.165963e-03  0 
 5.769429e-03  -7.157156e-03  0 
 4.978759e-03  -7.186620e-03  0 
 5.479693e-03  -6.514428e-03  0 
 1.402870e-02  -3.023340e-03  0 
 2.900550e-02  -4.913529e-03  0 
 7.742660e-03  -4.241849e-03  0 
 1.053495e-02  -8.925535e-03  0 
 5.704714e-03  -5.356887e-03  0 
 1.516728e-02  -3.948943e-03  0 
 2.281687e-02  -8.299280e-03  0 
 6.614081e-03  -3.035716e-03  0 
 8.513816e-03  -6.318708e-03  0 
 9.297015e-03  -3.586041e-03  0 
 1.482993e-02  -5.874821e-03  0 
 1.068720e-02  -2.027711e-03  0 
 1.943364e-02  -2.661087e-03  0 
VECTORS displacement_ITER21 FLOAT
 6.833908e-03  -7.821159e-03  0 
 3.088074e-03  -8.120150e-03  0 
 4.343093e-02  -7.714263e-03  0 
 6.822596e-03  -4.545855e-03  0 
 6.826387e-03  -6.177508e-03  0 
 3.572396e-03  -7.758433e-03  0 
 5.188000e-03  -7.810205e-03  0 
 2.649353e-03  -7.655580e-03  0 
 2.708529e-03  -7.630393e-03  0 
 1.348618e-02  -1.388356e-02  0 
 2.018339e-02  -1.626811e-02  0 
 2.988288e-02  -1.523262e-02  0 
 1.232059e-02  -7.103131e-03  0 
 2.245210e-02  -7.783118e-03  0 
 3.281078e-02  -7.900667e-03  0 
 5.544701e-03  -6.137860e-03  0 
 3.962696e-03  -6.207491e-03  0 
 4.964410e-03  -4.838301e-03  0 
 1.347321e-02  -3.851529e-03  0 
 2.830962e-02  -5.648544e-03  0 
 7.973328e-03  -4.717830e-03  0 
 1.020579e-02  -9.508921e-03  0 
 5.453318e-03  -5.978096e-03  0 
 1.484054e-02  -4.538476e-03  0 
 2.222093e-02  -9.048691e-03  0 
 6.667621e-03  -4.041454e-03  0 
 7.820928e-03  -6.883399e-03  0 
 8.662348e-03  -4.284895e-03  0 
 1.426175e-02  -6.678477e-03  0 
 1.035791e-02  -2.826178e-03  0 
 1.883428e-02  -3.432519e-03  0 
VECTORS displacement_ITER22 FLOAT
 5.996573e-03  -6.708361e-03  0 
 2.500202e-03  -8.364769e-03  0 
 4.319606e-02  -6.740694e-03  0 
 5.984106e-03  -4.987567e-03  0 
 5.988460e-03  -5.841985e-03  0 
 4.290164e-03  -6.643788e-03  0 
 5.127902e-03  -6.696344e-03  0 
 2.324505e-03  -7.471906e-03  0 
 2.194673e-03  -7.487604e-03  0 
 1.311961e-02  -1.276925e-02  0 
 2.007684e-02  -1.506218e-02  0 
 2.977269e-02  -1.410861e-02  0 
 1.218633e-02  -7.067761e-03  0 
 2.214652e-02  -7.153597e-03  0 
 3.253480e-02  -7.009086e-03  0 
 5.312990e-03  -5.817439e-03  0 
 4.475293e-03  -5.848808e-03  0 
 5.005523e-03  -5.135045e-03  0 
 1.356212e-02  -2.905179e-03  0 
 2.814114e-02  -4.681320e-03  0 
 7.769471e-03  -4.379924e-03  0 
 1.010550e-02  -8.124229e-03  0 
 5.779589e-03  -5.137734e-03  0 
 1.478918e-02  -4.071268e-03  0 
 2.215949e-02  -7.931116e-03  0 
 6.777776e-03  -3.341853e-03  0 
 8.088628e-03  -5.573379e-03  0 
 8.938123e-03  -3.302851e-03  0 
 1.428367e-02  -5.445169e-03  0 
 1.042933e-02  -2.153797e-03  0 
 1.878691e-02  -2.599029e-03  0 
VECTORS displacement_ITER23 FLOAT
 5.669912e-03  -6.225547e-03  0 
 2.193424e-03  -7.469243e-03  0 
 4.398705e-02  -6.998467e-03  0 
 5.657102e-03  -5.242504e-03  0 
 5.661582e-03  -5.728180e-03  0 
 4.702581e-03  -6.158842e-03  0 
 5.170215e-03  -6.212621e-03  0 
 1.859862e-03  -5.955632e-03  0 
 1.848314e-03  -6.298383e-03  0 
 1.324742e-02  -1.239665e-02  0 
 2.056201e-02  -1.474887e-02  0 
 3.048305e-02  -1.396783e-02  0 
 1.294437e-02  -7.114074e-03  0 
 2.295109e-02  -6.888132e-03  0 
 3.334782e-02  -6.875042e-03  0 
 5.273741e-03  -5.710930e-03  0 
 4.789736e-03  -5.724361e-03  0 
 5.095927e-03  -5.321724e-03  0 
 1.402649e-02  -2.009071e-03  0 
 2.881576e-02  -4.400899e-03  0 
 7.910204e-03  -3.421054e-03  0 
 1.027775e-02  -7.445783e-03  0 
 5.995972e-03  -3.894417e-03  0 
 1.551906e-02  -3.583799e-03  0 
 2.272490e-02  -7.508426e-03  0 
 6.878064e-03  -1.909405e-03  0 
 8.343878e-03  -4.763835e-03  0 
 9.327007e-03  -2.241657e-03  0 
 1.468370e-02  -4.702953e-03  0 
 1.083712e-02  -1.089866e-03  0 
 1.942425e-02  -2.059586e-03  0 
VECTORS displacement_ITER24 FLOAT
 6.531995e-03  -6.392117e-03  0 
 2.860749e-03  -6.397152e-03  0 
 4.346535e-02  -7.960866e-03  0 
 6.520626e-03  -3.193319e-03  0 
 6.524439e-03  -4.787174e-03  0 
 3.351884e-03  -6.325317e-03  0 
 4.925264e-03  -6.379675e-03  0 
 2.488301e-03  -6.743515e-03  0 
 2.627702e-03  -6.426466e-03  0 
 1.355629e-02  -1.295216e-02  0 
 2.044520e-02  -1.568590e-02  0 
 3.011974e-02  -1.492117e-02  0 
 1.327865e-02  -7.048047e-03  0 
 2.300709e-02  -7.392071e-03  0 
 3.317850e-02  -7.610684e-03  0 
 5.272593e-03  -4.748453e-03  0 
 3.729658e-03  -4.816072e-03  0 
 4.706210e-03  -3.480476e-03  0 
 1.362068e-02  -2.788008e-03  0 
 2.855695e-02  -5.354857e-03  0 
 7.934659e-03  -3.577368e-03  0 
 1.014040e-02  -8.393921e-03  0 
 5.619757e-03  -4.329345e-03  0 
 1.544546e-02  -4.052987e-03  0 
 2.242750e-02  -8.556534e-03  0 
 6.836946e-03  -2.608523e-03  0 
 7.676036e-03  -5.586971e-03  0 
 8.702890e-03  -2.884172e-03  0 
 1.432459e-02  -5.737804e-03  0 
 1.050672e-02  -1.593881e-03  0 
 1.917408e-02  -2.892293e-03  0 
VECTORS displacement_ITER25 FLOAT
 5.331176e-03  -5.666579e-03  0 
 9.386905e-04  -7.804198e-03  0 
 4.357087e-02  -5.812012e-03  0 
 5.317795e-03  -4.942465e-03  0 
 5.322632e-03  -5.298887e-03  0 
 4.624159e-03  -5.598987e-03  0 
 4.961286e-03  -5.653078e-03  0 
 2.414378e-03  -5.564834e-03  0 
 1.788155e-03  -6.594722e-03  0 
 1.308686e-02  -1.195334e-02  0 
 2.048244e-02  -1.434212e-02  0 
 3.028267e-02  -1.326838e-02  0 
 1.274639e-02  -7.078599e-03  0 
 2.369030e-02  -6.178531e-03  0 
 3.378284e-02  -5.724031e-03  0 
 5.035927e-03  -5.284092e-03  0 
 4.676806e-03  -5.291323e-03  0 
 4.903746e-03  -4.997950e-03  0 
 1.432722e-02  -1.164446e-03  0 
 2.922291e-02  -3.695091e-03  0 
 7.979721e-03  -2.752141e-03  0 
 1.016237e-02  -6.917716e-03  0 
 6.450890e-03  -3.022894e-03  0 
 1.595119e-02  -2.735379e-03  0 
 2.290747e-02  -6.976792e-03  0 
 7.369311e-03  -1.168691e-03  0 
 8.303163e-03  -4.141703e-03  0 
 9.564152e-03  -1.388986e-03  0 
 1.479023e-02  -4.055563e-03  0 
 1.114094e-02  -1.566392e-04  0 
 1.984598e-02  -1.272045e-03  0 
VECTORS displacement_ITER26 FLOAT
 5.882232e-03  -5.724633e-03  0 
 3.557180e-03  -5.789361e-03  0 
 4.355667e-02  -8.017372e-03  0 
 5.869092e-03  -3.017170e-03  0 
 5.873925e-03  -4.365446e-03  0 
 3.193452e-03  -5.657607e-03  0 
 4.521291e-03  -5.711454e-03  0 
 3.604014e-03  -7.031419e-03  0 
 3.753117e-03  -6.723894e-03  0 
 1.327782e-02  -1.258699e-02  0 
 2.040175e-02  -1.547166e-02  0 
 3.018878e-02  -1.484020e-02  0 
 1.304040e-02  -6.263706e-03  0 
 2.317011e-02  -7.110524e-03  0 
 3.345969e-02  -7.502601e-03  0 
 4.813969e-03  -4.330987e-03  0 
 3.506921e-03  -4.386402e-03  0 
 4.333787e-03  -3.258118e-03  0 
 1.356571e-02  -2.402409e-03  0 
 2.866768e-02  -5.194513e-03  0 
 8.202533e-03  -3.423031e-03  0 
 9.833409e-03  -7.825790e-03  0 
 5.904167e-03  -4.024738e-03  0 
 1.530393e-02  -3.521958e-03  0 
 2.240729e-02  -8.286740e-03  0 
 7.221574e-03  -2.748529e-03  0 
 7.495845e-03  -5.037989e-03  0 
 8.703159e-03  -2.507326e-03  0 
 1.412747e-02  -5.251086e-03  0 
 1.050932e-02  -1.376434e-03  0 
 1.906166e-02  -2.445617e-03  0 
VECTORS displacement_ITER27 FLOAT
 5.068108e-03  -4.981434e-03  0 
 2.513490e-03  -6.254554e-03  0 
 4.402152e-02  -6.431631e-03  0 
 5.053694e-03  -4.399974e-03  0 
 5.059144e-03  -4.685186e-03  0 
 4.503132e-03  -4.914390e-03  0 
 4.769570e-03  -4.967620e-03  0 
 2.625918e-03  -5.091885e-03  0 
 2.723141e-03  -5.938473e-03  0 
 1.307019e-02  -1.153798e-02  0 
 2.065190e-02  -1.413247e-02  0 
 3.062017e-02  -1.343175e-02  0 
 1.269612e-02  -6.106043e-03  0 
 2.347698e-02  -6.254393e-03  0 
 3.388371e-02  -6.262075e-03  0 
 4.828272e-03  -4.671464e-03  0 
 4.537964e-03  -4.675326e-03  0 
 4.721225e-03  -4.442068e-03  0 
 1.407636e-02  -9.605651e-04  0 
 2.919068e-02  -3.834967e-03  0 
 8.078012e-03  -2.614181e-03  0 
 1.002751e-02  -6.350645e-03  0 
 6.161109e-03  -2.677068e-03  0 
 1.555043e-02  -2.509148e-03  0 
 2.289143e-02  -6.821837e-03  0 
 7.089783e-03  -1.152485e-03  0 
 8.162219e-03  -3.600792e-03  0 
 9.353894e-03  -1.107869e-03  0 
 1.460026e-02  -3.669622e-03  0 