# vtk DataFile Version 3.1
this is an vtk file created by FEMAC
ASCII
DATASET UNSTRUCTURED_GRID
POINTS 31 FLOAT
3.000000 4.000000 0.000000
3.000000 5.000000 0.000000
2.250000 5.000000 0.000000
2.500000 5.000000 0.000000
2.750000 5.000000 0.000000
3.000000 4.250000 0.000000
3.000000 4.500000 0.000000
3.000000 4.750000 0.000000
2.447447 4.528256 0.000000
2.813081 4.669072 0.000000
2.813653 4.331392 0.000000
2.255000 4.805000 0.000000
2.775000 4.500000 0.000000
2.660928 4.805846 0.000000
2.661595 4.194695 0.000000
2.242859 4.565925 0.000000
2.413341 4.323754 0.000000
2.453287 4.717271 0.000000
2.616917 4.404183 0.000000
2.613486 4.598598 0.000000
2.844802 4.844984 0.000000
2.845050 4.155217 0.000000
2.612481 5.213004 0.000000
2.371000 5.200321 0.000000
3.512466 4.547863 0.000000
3.226067 4.588218 0.000000
3.371004 4.799680 0.000000
3.336997 4.345660 0.000000
3.137613 4.361776 0.000000
3.169414 4.827579 0.000000
3.186855 4.186208 0.000000
CELLS 43 172 
3 9 6 7
3 6 10  5
3 11  3  2
3 9 12  6
3 12 10  6
3 18 10 12
3 9 19 12
3 13  4  3
3 13 19  9
3 18 14 10
3 15 17 11
3 18 19  8
3 18 12 19
3 18  8 16
3 16 14 18
3 17  3 11
3 13  3 17
3 8 19 17
3 13 17 19
3 4 20  1
3 7 20  9
3 20  7  1
3 21  5 10
3 5 21  0
3 13 20  4
3 13  9 20
3 10 14 21
3 16  8 15
3 8 17 15
3 4 22  3
3 2  3 23
3 3 22 23
3 25  7  6
3 25 27 24
3 25 24 26
3 6 28 25
3 28  6  5
3 28 27 25
3 7 29  1
3 30  5  0
3 5 30 28
3 27 28 30
3 25 29  7
CELL_TYPES 43
5 5 5 5 5 5 5 5 5 5 5 5 5 5 5 5 5 5 5 5 5 5 5 5 5 5 5 5 5 5 5 5 5 5 5 5 5 5 5 5 5 5 5 
POINT_DATA 31
VECTORS displacement_ITER1 FLOAT
 3.305411e-02  -1.160497e-01  0 
 6.372201e-02  -1.160711e-01  0 
 6.363961e-02  -9.311324e-02  0 
 6.368109e-02  -1.007244e-01  0 
 6.370857e-02  -1.083929e-01  0 
 4.070935e-02  -1.160580e-01  0 
 4.840206e-02  -1.160423e-01  0 
 5.606511e-02  -1.160690e-01  0 
 4.924335e-02  -9.909132e-02  0 
 5.357080e-02  -1.103155e-01  0 
 4.321752e-02  -1.103214e-01  0 
 5.770821e-02  -9.322152e-02  0 
 4.839082e-02  -1.091402e-01  0 
 5.775501e-02  -1.056471e-01  0 
 3.901729e-02  -1.056477e-01  0 
 5.038837e-02  -9.282269e-02  0 
 4.297132e-02  -9.802831e-02  0 
 5.503586e-02  -9.928240e-02  0 
 4.544618e-02  -1.042834e-01  0 
 5.140620e-02  -1.041884e-01  0 
 5.896644e-02  -1.113000e-01  0 
 3.780165e-02  -1.112959e-01  0 
 4.677383e-02  -9.553415e-02  0 
 4.352226e-02  -9.932460e-02  0 
 9.205061e-02  -2.545687e-01  0 
 7.113936e-02  -1.407422e-01  0 
 1.979595e-01  -2.466032e-01  0 
 3.736251e-02  -1.579004e-01  0 
 4.233294e-02  -1.262461e-01  0 
 5.904261e-02  -1.281167e-01  0 
 3.716030e-02  -1.332700e-01  0 
VECTORS displacement_ITER2 FLOAT
 4.925432e-02  -9.595567e-02  0 
 6.464601e-02  -9.599554e-02  0 
 6.455370e-02  -8.447309e-02  0 
 6.459858e-02  -8.827225e-02  0 
 6.463020e-02  -9.212877e-02  0 
 5.307510e-02  -9.596934e-02  0 
 5.694940e-02  -9.595550e-02  0 
 6.079890e-02  -9.598221e-02  0 
 5.736166e-02  -8.743415e-02  0 
 5.953939e-02  -9.308077e-02  0 
 5.434023e-02  -9.308103e-02  0 
 6.159468e-02  -8.450419e-02  0 
 5.694051e-02  -9.248578e-02  0 
 6.163433e-02  -9.073670e-02  0 
 5.222763e-02  -9.072930e-02  0 
 5.792811e-02  -8.429344e-02  0 
 5.421832e-02  -8.688801e-02  0 
 6.026397e-02  -8.753842e-02  0 
 5.546143e-02  -9.004019e-02  0 
 5.844975e-02  -8.999774e-02  0 
 6.225054e-02  -9.358536e-02  0 
 5.161670e-02  -9.357952e-02  0 
 4.991961e-02  -8.248569e-02  0 
 4.677071e-02  -8.876678e-02  0 
 9.225658e-02  -1.999169e-01  0 
 7.501907e-02  -1.134336e-01  0 
 1.741067e-01  -1.945983e-01  0 
 5.081784e-02  -1.260760e-01  0 
 5.387707e-02  -1.027697e-01  0 
 6.289160e-02  -1.043812e-01  0 
 5.148552e-02  -1.078694e-01  0 
VECTORS displacement_ITER3 FLOAT
 2.979752e-02  -6.758545e-02  0 
 5.354580e-02  -6.765410e-02  0 
 5.343702e-02  -4.980507e-02  0 
 5.348555e-02  -5.571355e-02  0 
 5.352376e-02  -6.167652e-02  0 
 3.565947e-02  -6.760636e-02  0 
 4.162773e-02  -6.759423e-02  0 
 4.758255e-02  -6.762041e-02  0 
 4.228548e-02  -5.442596e-02  0 
 4.564289e-02  -6.314743e-02  0 
 3.760828e-02  -6.316303e-02  0 
 4.883082e-02  -4.987978e-02  0 
 4.162500e-02  -6.223349e-02  0 
 4.888585e-02  -5.952751e-02  0 
 3.435296e-02  -5.953831e-02  0 
 4.316276e-02  -4.957471e-02  0 
 3.743722e-02  -5.358894e-02  0 
 4.676657e-02  -5.458102e-02  0 
 3.934794e-02  -5.845888e-02  0 
 4.396144e-02  -5.838494e-02  0 
 4.983406e-02  -6.392418e-02  0 
 3.341615e-02  -6.393659e-02  0 
 5.120905e-02  -5.293352e-02  0 
 4.776251e-02  -5.439821e-02  0 
 6.275875e-02  -1.265817e-01  0 
 5.403176e-02  -7.860489e-02  0 
 1.141616e-01  -1.223105e-01  0 
 3.730812e-02  -8.670695e-02  0 
 3.845705e-02  -7.236529e-02  0 
 5.092597e-02  -7.517189e-02  0 
 3.470406e-02  -7.577133e-02  0 
VECTORS displacement_ITER4 FLOAT
 2.266298e-02  -6.282312e-02  0 
 4.786572e-02  -6.291644e-02  0 
 4.774343e-02  -4.393970e-02  0 
 4.779395e-02  -5.022438e-02  0 
 4.783705e-02  -5.656045e-02  0 
 2.886077e-02  -6.284867e-02  0 
 3.519408e-02  -6.283975e-02  0 
 4.152080e-02  -6.286995e-02  0 
 3.589504e-02  -4.885454e-02  0 
 3.945997e-02  -5.811811e-02  0 
 3.092845e-02  -5.813723e-02  0 
 4.284304e-02  -4.402326e-02  0 
 3.519308e-02  -5.714732e-02  0 
 4.290498e-02  -5.427441e-02  0 
 2.747494e-02  -5.429052e-02  0 
 3.682474e-02  -4.370494e-02  0 
 3.075129e-02  -4.796538e-02  0 
 4.065115e-02  -4.901879e-02  0 
 3.277745e-02  -5.313895e-02  0 
 3.767380e-02  -5.305893e-02  0 
 4.391384e-02  -5.894528e-02  0 
 2.648401e-02  -5.896221e-02  0 
 5.189725e-02  -4.927946e-02  0 
 4.816517e-02  -4.808457e-02  0 
 5.162348e-02  -1.020850e-01  0 
 4.563824e-02  -7.035489e-02  0 
 9.082479e-02  -9.903769e-02  0 
 3.237857e-02  -7.597062e-02  0 
 3.242020e-02  -6.610738e-02  0 
 4.531998e-02  -6.966045e-02  0 
 2.856445e-02  -6.848674e-02  0 
VECTORS displacement_ITER5 FLOAT
 2.886130e-02  -3.153095e-02  0 
 3.432665e-02  -3.164984e-02  0 
 3.417453e-02  -2.745008e-02  0 
 3.423063e-02  -2.880673e-02  0 
 3.428275e-02  -3.021131e-02  0 
 3.010063e-02  -3.155480e-02  0 
 3.149789e-02  -3.154847e-02  0 
 3.289391e-02  -3.158726e-02  0 
 3.163873e-02  -2.846569e-02  0 
 3.242670e-02  -3.051729e-02  0 
 3.056104e-02  -3.052505e-02  0 
 3.311793e-02  -2.743351e-02  0 
 3.149678e-02  -3.029614e-02  0 
 3.317324e-02  -2.967622e-02  0 
 2.980811e-02  -2.967989e-02  0 
 3.182070e-02  -2.735759e-02  0 
 3.053643e-02  -2.824689e-02  0 
 3.266140e-02  -2.851600e-02  0 
 3.097369e-02  -2.940615e-02  0 
 3.202947e-02  -2.939389e-02  0 
 3.341456e-02  -3.072197e-02  0 
 2.960000e-02  -3.073511e-02  0 
 4.028583e-02  -2.851927e-02  0 
 3.601754e-02  -2.894609e-02  0 
 4.705076e-02  -5.267308e-02  0 
 4.021388e-02  -3.292003e-02  0 
 7.661608e-02  -5.355979e-02  0 
 3.323066e-02  -3.474745e-02  0 
 3.196615e-02  -3.102436e-02  0 
 3.544189e-02  -3.465790e-02  0 
 3.174881e-02  -3.163375e-02  0 
VECTORS displacement_ITER6 FLOAT
 1.609887e-02  -2.482968e-02  0 
 2.709015e-02  -2.493063e-02  0 
 2.691113e-02  -1.658822e-02  0 
 2.697332e-02  -1.932006e-02  0 
 2.703195e-02  -2.210038e-02  0 
 1.869824e-02  -2.483881e-02  0 
 2.147668e-02  -2.482516e-02  0 
 2.425667e-02  -2.486105e-02  0 
 2.178037e-02  -1.868635e-02  0 
 2.334337e-02  -2.275614e-02  0 
 1.961249e-02  -2.277751e-02  0 
 2.478188e-02  -1.659479e-02  0 
 2.148001e-02  -2.232853e-02  0 
 2.484741e-02  -2.107252e-02  0 
 1.810722e-02  -2.109256e-02  0 
 2.216855e-02  -1.645110e-02  0 
 1.955133e-02  -1.827813e-02  0 
 2.384473e-02  -1.876853e-02  0 
 2.043065e-02  -2.056551e-02  0 
 2.255852e-02  -2.053082e-02  0 
 2.530618e-02  -2.313289e-02  0 
 1.768132e-02  -2.317059e-02  0 
 3.631613e-02  -2.111913e-02  0 
 3.136457e-02  -1.937610e-02  0 
 3.430627e-02  -4.417923e-02  0 
 2.894038e-02  -2.679041e-02  0 
 6.212831e-02  -4.619734e-02  0 
 2.117788e-02  -2.818176e-02  0 
 2.064315e-02  -2.474448e-02  0 
 2.723028e-02  -2.886347e-02  0 
 1.929567e-02  -2.538488e-02  0 
VECTORS displacement_ITER7 FLOAT
 1.518566e-02  -1.637009e-02  0 
 1.922632e-02  -1.644572e-02  0 
 1.901634e-02  -1.334037e-02  0 
 1.908695e-02  -1.431842e-02  0 
 1.915308e-02  -1.534938e-02  0 
 1.604059e-02  -1.636170e-02  0 
 1.707620e-02  -1.634101e-02  0 
 1.811615e-02  -1.637208e-02  0 
 1.718946e-02  -1.404808e-02  0 
 1.776848e-02  -1.556754e-02  0 
 1.639082e-02  -1.559446e-02  0 
 1.825540e-02  -1.330425e-02  0 
 1.708374e-02  -1.540937e-02  0 
 1.832093e-02  -1.494185e-02  0 
 1.583924e-02  -1.496775e-02  0 
 1.731380e-02  -1.324147e-02  0 
 1.638717e-02  -1.387653e-02  0 
 1.793470e-02  -1.408950e-02  0 
 1.670451e-02  -1.474788e-02  0 
 1.747657e-02  -1.473418e-02  0 
 1.850807e-02  -1.571893e-02  0 
 1.568766e-02  -1.577439e-02  0 
 2.634623e-02  -1.597243e-02  0 
 2.120705e-02  -1.626982e-02  0 
 2.720208e-02  -3.047092e-02  0 
 2.200864e-02  -1.835195e-02  0 
 4.678831e-02  -3.577410e-02  0 
 1.748181e-02  -1.774288e-02  0 
 1.685654e-02  -1.608061e-02  0 
 2.032501e-02  -1.982280e-02  0 
 1.673137e-02  -1.599515e-02  0 
VECTORS displacement_ITER8 FLOAT
 1.609781e-02  -1.207808e-02  0 
 1.544956e-02  -1.214137e-02  0 
 1.521872e-02  -1.257488e-02  0 
 1.529574e-02  -1.236749e-02  0 
 1.536734e-02  -1.221835e-02  0 
 1.578204e-02  -1.206061e-02  0 
 1.564009e-02  -1.203746e-02  0 
 1.550499e-02  -1.206615e-02  0 
 1.562359e-02  -1.234178e-02  0 
 1.553883e-02  -1.213939e-02  0 
 1.575000e-02  -1.216776e-02  0 
 1.538267e-02  -1.250876e-02  0 
 1.564969e-02  -1.216227e-02  0 
 1.544835e-02  -1.222850e-02  0 
 1.584165e-02  -1.225540e-02  0 
 1.557012e-02  -1.249965e-02  0 
 1.578433e-02  -1.233020e-02  0 
 1.547838e-02  -1.235596e-02  0 
 1.572244e-02  -1.224443e-02  0 
 1.557933e-02  -1.224569e-02  0 
 1.545253e-02  -1.213949e-02  0 
 1.587532e-02  -1.220073e-02  0 
 2.011545e-02  -1.347870e-02  0 
 1.513845e-02  -1.568086e-02  0 
 2.430705e-02  -2.261761e-02  0 
 1.891407e-02  -1.454539e-02  0 
 3.674147e-02  -3.016377e-02  0 
 1.711277e-02  -1.235967e-02  0 
 1.601988e-02  -1.184334e-02  0 
 1.712613e-02  -1.523822e-02  0 
 1.682221e-02  -1.108928e-02  0 
VECTORS displacement_ITER9 FLOAT
 1.248756e-02  -1.363398e-02  0 
 1.566744e-02  -1.367707e-02  0 
 1.541043e-02  -1.126527e-02  0 
 1.549552e-02  -1.199936e-02  0 
 1.557404e-02  -1.279940e-02  0 
 1.312391e-02  -1.360511e-02  0 
 1.393387e-02  -1.357761e-02  0 
 1.475495e-02  -1.360112e-02  0 
 1.403225e-02  -1.177063e-02  0 
 1.448170e-02  -1.296010e-02  0 
 1.340418e-02  -1.299908e-02  0 
 1.484030e-02  -1.120999e-02  0 
 1.394764e-02  -1.284142e-02  0 
 1.491402e-02  -1.246746e-02  0 
 1.297533e-02  -1.250627e-02  0 
 1.412219e-02  -1.115040e-02  0 
 1.341445e-02  -1.162895e-02  0 
 1.460607e-02  -1.180681e-02  0 
 1.365729e-02  -1.232098e-02  0 
 1.425510e-02  -1.230637e-02  0 
 1.506895e-02  -1.307804e-02  0 
 1.285794e-02  -1.315498e-02  0 
 1.903319e-02  -1.311539e-02  0 
 1.457800e-02  -1.569360e-02  0 
 1.862269e-02  -1.971847e-02  0 
 1.490689e-02  -1.763589e-02  0 
 2.210293e-02  -2.834390e-02  0 
 1.467627e-02  -1.444762e-02  0 
 1.354488e-02  -1.444670e-02  0 
 1.630012e-02  -1.754580e-02  0 
 1.367463e-02  -1.340178e-02  0 
VECTORS displacement_ITER10 FLOAT
 8.990992e-03  -9.087028e-03  0 
 9.293600e-03  -9.124549e-03  0 
 9.015578e-03  -8.887339e-03  0 
 9.106666e-03  -8.892739e-03  0 
 9.191012e-03  -8.969090e-03  0 
 8.905171e-03  -9.053934e-03  0 
 8.991633e-03  -9.025246e-03  0 
 9.092391e-03  -9.047239e-03  0 
 9.011295e-03  -8.812236e-03  0 
 9.053103e-03  -8.944266e-03  0 
 8.950651e-03  -8.985248e-03  0 
 9.014348e-03  -8.812030e-03  0 
 9.007274e-03  -8.936990e-03  0 
 9.090620e-03  -8.890869e-03  0 
 8.917261e-03  -8.931602e-03  0 
 8.991844e-03  -8.784906e-03  0 
 8.986001e-03  -8.769095e-03  0 
 9.037387e-03  -8.831662e-03  0 
 8.995000e-03  -8.873238e-03  0 
 9.030381e-03  -8.867333e-03  0 
 9.134705e-03  -8.969555e-03  0 
 8.913765e-03  -9.051371e-03  0 
 1.094685e-02  -9.594664e-03  0 
 7.115290e-03  -1.332672e-02  0 
 1.097675e-02  -1.009443e-02  0 
 8.299673e-03  -1.292244e-02  0 
 7.094146e-03  -1.875219e-02  0 
 1.032299e-02  -9.152988e-03  0 
 8.994541e-03  -1.002554e-02  0 
 1.011775e-02  -1.238274e-02  0 
 9.578572e-03  -8.757437e-03  0 
VECTORS displacement_ITER11 FLOAT
 8.938126e-03  -5.807843e-03  0 
 9.230140e-03  -5.849421e-03  0 
 8.939639e-03  -5.621218e-03  0 
 9.033143e-03  -5.623164e-03  0 
 9.120725e-03  -5.696778e-03  0 
 8.842729e-03  -5.775595e-03  0 
 8.924676e-03  -5.747687e-03  0 
 9.023695e-03  -5.770452e-03  0 
 8.945051e-03  -5.541569e-03  0 
 8.984904e-03  -5.668169e-03  0 
 8.886750e-03  -5.710565e-03  0 
 8.941518e-03  -5.544457e-03  0 
 8.940960e-03  -5.661819e-03  0 
 9.021163e-03  -5.616791e-03  0 
 8.856454e-03  -5.660038e-03  0 
 8.924928e-03  -5.517637e-03  0 
 8.923989e-03  -5.500033e-03  0 
 8.967650e-03  -5.560299e-03  0 
 8.930688e-03  -5.600627e-03  0 
 8.962808e-03  -5.593743e-03  0 
 9.066697e-03  -5.692821e-03  0 
 8.854088e-03  -5.777067e-03  0 
 1.147524e-02  -6.557547e-03  0 
 8.083396e-03  -9.832391e-03  0 
 9.408784e-03  -4.831436e-03  0 
 7.688161e-03  -9.312044e-03  0 
 3.149905e-03  -1.225944e-02  0 
 1.012521e-02  -5.948966e-03  0 
 8.922163e-03  -6.858886e-03  0 
 9.897327e-03  -8.695746e-03  0 
 9.401322e-03  -5.768502e-03  0 
VECTORS displacement_ITER12 FLOAT
 7.091436e-03  -1.877522e-03  0 
 6.432788e-03  -1.929270e-03  0 
 6.133496e-03  -2.404974e-03  0 
 6.227174e-03  -2.173981e-03  0 
 6.316707e-03  -2.012465e-03  0 
 6.748787e-03  -1.849114e-03  0 
 6.592197e-03  -1.823054e-03  0 
 6.455314e-03  -1.848147e-03  0 
 6.585569e-03  -2.141630e-03  0 
 6.492204e-03  -1.921142e-03  0 
 6.714679e-03  -1.963191e-03  0 
 6.317674e-03  -2.325066e-03  0 
 6.608316e-03  -1.950794e-03  0 
 6.399324e-03  -2.014186e-03  0 
 6.815915e-03  -2.058743e-03  0 
 6.529699e-03  -2.311791e-03  0 
 6.760156e-03  -2.134457e-03  0 
 6.428073e-03  -2.153599e-03  0 
 6.689407e-03  -2.040312e-03  0 
 6.536257e-03  -2.035653e-03  0 
 6.409792e-03  -1.915830e-03  0 
 6.852057e-03  -2.000749e-03  0 
 9.968820e-03  -3.249705e-03  0 
 7.131170e-03  -5.517116e-03  0 
 6.605273e-03  -5.350459e-04  0 
 5.402820e-03  -4.721605e-03  0 
 5.185394e-04  -6.387210e-03  0 
 7.759239e-03  -2.151987e-03  0 
 6.756096e-03  -2.847285e-03  0 
 7.167122e-03  -4.116876e-03  0 
 7.304220e-03  -2.092867e-03  0 
VECTORS displacement_ITER13 FLOAT
 3.997411e-03  1.522023e-03  0 
 1.068886e-03  1.470678e-03  0 
 7.589505e-04  -7.120805e-04  0 
 8.537114e-04  8.693284e-05  0 
 9.452458e-04  8.177211e-04  0 
 3.086675e-03  1.551824e-03  0 
 2.361969e-03  1.580185e-03  0 
 1.655155e-03  1.553512e-03  0 
 2.289663e-03  1.444624e-06  0 
 1.875833e-03  1.056048e-03  0 
 2.868221e-03  1.015108e-03  0 
 1.387167e-03  -6.213338e-04  0 
 2.377517e-03  9.398317e-04  0 
 1.470492e-03  6.154087e-04  0 
 3.281405e-03  5.721106e-04  0 
 2.147454e-03  -6.364052e-04  0 
 2.932551e-03  -7.015916e-05  0 
 1.699676e-03  3.098354e-06  0 
 2.677246e-03  4.897176e-04  0 
 2.079808e-03  4.866994e-04  0 
 1.393722e-03  1.133765e-03  0 
 3.406038e-03  1.047536e-03  0 
 5.081901e-03  -7.240380e-04  0 
 2.916365e-03  -2.427467e-03  0 
 3.410904e-03  -1.839190e-03  0 
 2.004755e-03  -9.579788e-04  0 
 1.959285e-03  -5.375105e-03  0 
 3.091826e-03  -9.830409e-05  0 
 2.711524e-03  5.555853e-04  0 
 2.100036e-03  2.966653e-05  0 
 3.435804e-03  5.909993e-04  0 
VECTORS displacement_ITER14 FLOAT
 5.279088e-03  2.410426e-03  0 
 1.837160e-03  2.363138e-03  0 
 1.522331e-03  -2.097281e-04  0 
 1.617808e-03  7.195531e-04  0 
 1.710313e-03  1.579972e-03  0 
 4.241578e-03  2.443707e-03  0 
 3.387711e-03  2.473681e-03  0 
 2.550742e-03  2.446313e-03  0 
 3.300249e-03  6.068306e-04  0 
 2.813232e-03  1.852208e-03  0 
 3.981438e-03  1.811388e-03  0 
 2.252676e-03  -1.161070e-04  0 
 3.402950e-03  1.716073e-03  0 
 2.336641e-03  1.332361e-03  0 
 4.465722e-03  1.288998e-03  0 
 3.138610e-03  -1.374609e-04  0 
 4.049796e-03  5.166843e-04  0 
 2.611607e-03  6.119515e-04  0 
 3.752459e-03  1.183421e-03  0 
 3.053723e-03  1.178865e-03  0 
 2.240307e-03  1.946701e-03  0 
 4.610142e-03  1.859550e-03  0 
 5.321195e-03  2.986207e-04  0 
 3.540152e-03  -1.399841e-03  0 
 5.138127e-03  -3.355169e-03  0 
 3.560212e-03  2.207893e-04  0 
 6.521151e-03  -5.808691e-03  0 
 3.772692e-03  2.860320e-04  0 
 3.731474e-03  1.538702e-03  0 
 2.909110e-03  1.263424e-03  0 
 4.438929e-03  1.248472e-03  0 
VECTORS displacement_ITER15 FLOAT
 4.374431e-03  2.030014e-03  0 
 8.615788e-04  1.995623e-03  0 
 5.390310e-04  -6.488845e-04  0 
 6.360583e-04  3.056628e-04  0 
 7.301336e-04  1.188670e-03  0 
 3.328300e-03  2.071566e-03  0 
 2.453664e-03  2.105185e-03  0 
 1.593633e-03  2.078392e-03  0 
 2.363449e-03  1.877669e-04  0 
 1.863623e-03  1.467508e-03  0 
 3.062048e-03  1.425940e-03  0 
 1.289834e-03  -5.534421e-04  0 
 2.468620e-03  1.327294e-03  0 
 1.374647e-03  9.341462e-04  0 
 3.557464e-03  8.901666e-04  0 
 2.199058e-03  -5.748520e-04  0 
 3.130761e-03  9.346061e-05  0 
 1.657788e-03  1.940408e-04  0 
 2.826385e-03  7.799946e-04  0 
 2.110565e-03  7.754923e-04  0 
 1.275599e-03  1.566074e-03  0 
 3.703399e-03  1.476805e-03  0 
 2.675742e-03  7.586262e-04  0 
 1.593820e-03  -1.238408e-03  0 
 4.762776e-03  -4.323520e-03  0 
 3.146265e-03  5.523783e-04  0 
 7.566162e-03  -5.328088e-03  0 
 2.816717e-03  -6.148859e-05  0 
 2.890268e-03  1.412124e-03  0 
 1.823237e-03  1.513746e-03  0 
 3.544989e-03  8.890697e-04  0 
VECTORS displacement_ITER16 FLOAT
 2.873978e-03  -2.309712e-03  0 
 2.720060e-03  -2.345923e-03  0 
 2.393957e-03  -2.468210e-03  0 
 2.490116e-03  -2.354892e-03  0 
 2.584969e-03  -2.312857e-03  0 
 2.663591e-03  -2.267650e-03  0 
 2.624876e-03  -2.236549e-03  0 
 2.605325e-03  -2.263669e-03  0 
 2.631174e-03  -2.300252e-03  0 
 2.603410e-03  -2.246495e-03  0 
 2.668453e-03  -2.291145e-03  0 
 2.488953e-03  -2.391091e-03  0 
 2.640162e-03  -2.260025e-03  0 
 2.575754e-03  -2.267594e-03  0 
 2.706336e-03  -2.318129e-03  0 
 2.594953e-03  -2.373765e-03  0 
 2.710506e-03  -2.283526e-03  0 
 2.561466e-03  -2.310892e-03  0 
 2.676308e-03  -2.278244e-03  0 
 2.614042e-03  -2.269066e-03  0 
 2.608784e-03  -2.252829e-03  0 
 2.721473e-03  -2.344647e-03  0 
 4.667622e-03  -1.799043e-03  0 
 4.131932e-03  -2.705245e-03  0 
 4.105796e-03  -3.553666e-03  0 
 3.004246e-03  -3.237549e-03  0 
 2.743470e-03  -4.697766e-03  0 
 3.475346e-03  -3.047463e-03  0 
 2.940681e-03  -2.752554e-03  0 
 2.982434e-03  -2.726622e-03  0 
 3.216229e-03  -2.873593e-03  0 
VECTORS displacement_ITER17 FLOAT
 1.901317e-03  -3.759160e-03  0 
 2.416020e-03  -3.789247e-03  0 
 2.080258e-03  -3.421695e-03  0 
 2.178841e-03  -3.469840e-03  0 
 2.276276e-03  -3.591506e-03  0 
 1.859249e-03  -3.713542e-03  0 
 1.984859e-03  -3.681289e-03  0 
 2.130695e-03  -3.707954e-03  0 
 2.011127e-03  -3.381157e-03  0 
 2.075480e-03  -3.566703e-03  0 
 1.917847e-03  -3.613638e-03  0 
 2.049832e-03  -3.345847e-03  0 
 2.000674e-03  -3.556250e-03  0 
 2.138739e-03  -3.486682e-03  0 
 1.865738e-03  -3.540935e-03  0 
 2.000348e-03  -3.319987e-03  0 
 1.955506e-03  -3.343451e-03  0 
 2.065890e-03  -3.394546e-03  0 
 1.973947e-03  -3.471047e-03  0 
 2.040009e-03  -3.458364e-03  0 
 2.198475e-03  -3.592510e-03  0 
 1.854433e-03  -3.688022e-03  0 
 3.823386e-03  -2.814898e-03  0 
 3.562996e-03  -3.439494e-03  0 
 4.008086e-03  -4.968663e-03  0 
 2.449711e-03  -4.897054e-03  0 
 2.054326e-03  -6.723070e-03  0 
 3.094963e-03  -4.224786e-03  0 
 2.295777e-03  -4.175185e-03  0 
 2.489654e-03  -4.290299e-03  0 
 2.581057e-03  -4.042734e-03  0 
VECTORS displacement_ITER18 FLOAT
 1.306269e-03  -3.804889e-03  0 
 1.890154e-03  -3.824194e-03  0 
 1.544006e-03  -3.421780e-03  0 
 1.645978e-03  -3.478944e-03  0 
 1.746053e-03  -3.612658e-03  0 
 1.284711e-03  -3.754117e-03  0 
 1.425862e-03  -3.718668e-03  0 
 1.586267e-03  -3.743772e-03  0 
 1.455220e-03  -3.386477e-03  0 
 1.526876e-03  -3.591400e-03  0 
 1.349385e-03  -3.640880e-03  0 
 1.507097e-03  -3.342889e-03  0 
 1.442454e-03  -3.579965e-03  0 
 1.598050e-03  -3.502213e-03  0 
 1.288837e-03  -3.559277e-03  0 
 1.446745e-03  -3.314637e-03  0 
 1.388026e-03  -3.347129e-03  0 
 1.520148e-03  -3.399974e-03  0 
 1.410596e-03  -3.485966e-03  0 
 1.487832e-03  -3.472312e-03  0 
 1.660640e-03  -3.617583e-03  0 
 1.273819e-03  -3.718115e-03  0 
 2.765004e-03  -2.933933e-03  0 
 2.524662e-03  -3.536722e-03  0 
 3.570370e-03  -6.055669e-03  0 
 1.940158e-03  -5.213793e-03  0 
 2.106813e-03  -7.720383e-03  0 
 2.370484e-03  -4.660704e-03  0 
 1.663195e-03  -4.331983e-03  0 
 1.929653e-03  -4.471975e-03  0 
 1.898953e-03  -4.253596e-03  0 
VECTORS displacement_ITER19 FLOAT
 8.681936e-04  -3.237966e-03  0 
 1.382958e-03  -3.252560e-03  0 
 1.027389e-03  -2.912703e-03  0 
 1.132227e-03  -2.946844e-03  0 
 1.234637e-03  -3.060204e-03  0 
 8.289828e-04  -3.184988e-03  0 
 9.513539e-04  -3.148308e-03  0 
 1.093413e-03  -3.172649e-03  0 
 9.800385e-04  -2.857866e-03  0 
 1.040329e-03  -3.033748e-03  0 
 8.880307e-04  -3.085062e-03  0 
 1.009073e-03  -2.830614e-03  0 
 9.686281e-04  -3.026174e-03  0 
 1.101519e-03  -2.955649e-03  0 
 8.377646e-04  -3.015117e-03  0 
 9.690633e-04  -2.802082e-03  0 
 9.281918e-04  -2.821623e-03  0 
 1.030281e-03  -2.870486e-03  0 
 9.443554e-04  -2.944576e-03  0 
 1.007002e-03  -2.930339e-03  0 
 1.161860e-03  -3.056410e-03  0 
 8.253414e-04  -3.160393e-03  0 
 2.002359e-03  -2.760332e-03  0 
 1.714606e-03  -3.191995e-03  0 
 2.932017e-03  -5.711238e-03  0 
 1.355770e-03  -4.839627e-03  0 
 1.241640e-03  -7.385228e-03  0 
 1.793941e-03  -4.263505e-03  0 
 1.139632e-03  -3.840915e-03  0 
 1.405573e-03  -4.033126e-03  0 
 1.349580e-03  -3.756230e-03  0 
VECTORS displacement_ITER20 FLOAT
 9.244205e-04  -3.781444e-03  0 
 2.289932e-03  -3.791661e-03  0 
 1.929261e-03  -2.820627e-03  0 
 2.035772e-03  -3.063956e-03  0 
 2.139273e-03  -3.388420e-03  0 
 1.098101e-03  -3.726316e-03  0 
 1.431779e-03  -3.688942e-03  0 
 1.785892e-03  -3.712116e-03  0 
 1.485868e-03  -2.930603e-03  0 
 1.664672e-03  -3.415041e-03  0 
 1.226205e-03  -3.468395e-03  0 
 1.748308e-03  -2.741066e-03  0 
 1.449714e-03  -3.376070e-03  0 
 1.841968e-03  -3.207880e-03  0 
 1.060116e-03  -3.269809e-03  0 
 1.507288e-03  -2.701678e-03  0 
 1.260495e-03  -2.865962e-03  0 
 1.695947e-03  -2.947689e-03  0 
 1.344607e-03  -3.161030e-03  0 
 1.572053e-03  -3.143137e-03  0 
 1.935723e-03  -3.463695e-03  0 
 1.014239e-03  -3.570390e-03  0 
 3.057415e-03  -3.207076e-03  0 
 2.786049e-03  -3.352295e-03  0 
 2.329973e-03  -4.134423e-03  0 
 1.435436e-03  -5.224735e-03  0 
 -1.274767e-03  -5.433840e-03  0 
 2.199070e-03  -4.615091e-03  0 
 1.523295e-03  -4.438598e-03  0 
 2.130611e-03  -4.578437e-03  0 
 1.544058e-03  -4.352553e-03  0 
VECTORS displacement_ITER21 FLOAT
 1.101765e-03  -3.630563e-03  0 
 2.536238e-03  -3.635337e-03  0 
 2.170884e-03  -2.619582e-03  0 
 2.279298e-03  -2.876467e-03  0 
 2.383822e-03  -3.216970e-03  0 
 1.293639e-03  -3.572957e-03  0 
 1.643993e-03  -3.534051e-03  0 
 2.014558e-03  -3.556272e-03  0 
 1.701071e-03  -2.739719e-03  0 
 1.888325e-03  -3.247072e-03  0 
 1.427705e-03  -3.301882e-03  0 
 1.980113e-03  -2.538497e-03  0 
 1.662416e-03  -3.206317e-03  0 
 2.074395e-03  -3.029929e-03  0 
 1.252515e-03  -3.093438e-03  0 
 1.725378e-03  -2.497718e-03  0 
 1.462267e-03  -2.673205e-03  0 
 1.922915e-03  -2.756822e-03  0 
 1.551359e-03  -2.981285e-03  0 
 1.791450e-03  -2.962583e-03  0 
 2.171007e-03  -3.297284e-03  0 
 1.203565e-03  -3.406449e-03  0 
 3.146958e-03  -3.065791e-03  0 
 2.937540e-03  -3.153704e-03  0 
 2.045405e-03  -4.050026e-03  0 
 1.535635e-03  -4.988833e-03  0 
 -1.471651e-03  -4.753715e-03  0 
 2.149631e-03  -4.705373e-03  0 
 1.657540e-03  -4.343957e-03  0 
 2.341907e-03  -4.335401e-03  0 
 1.590828e-03  -4.397233e-03  0 
VECTORS displacement_ITER22 FLOAT
 1.465816e-03  -2.835685e-03  0 
 2.208396e-03  -2.837966e-03  0 
 1.838143e-03  -2.344675e-03  0 
 1.948541e-03  -2.425976e-03  0 
 2.054158e-03  -2.593814e-03  0 
 1.483696e-03  -2.777423e-03  0 
 1.660798e-03  -2.737582e-03  0 
 1.858485e-03  -2.759542e-03  0 
 1.699552e-03  -2.326687e-03  0 
 1.788251e-03  -2.579526e-03  0 
 1.561712e-03  -2.635290e-03  0 
 1.785482e-03  -2.258548e-03  0 
 1.679575e-03  -2.565889e-03  0 
 1.879542e-03  -2.467522e-03  0 
 1.481564e-03  -2.532928e-03  0 
 1.698617e-03  -2.226339e-03  0 
 1.602397e-03  -2.285037e-03  0 
 1.789813e-03  -2.338714e-03  0 
 1.635288e-03  -2.451108e-03  0 
 1.740566e-03  -2.433769e-03  0 
 1.949539e-03  -2.607394e-03  0 
 1.459715e-03  -2.718663e-03  0 
 2.683936e-03  -2.512404e-03  0 
 2.535894e-03  -2.474798e-03  0 
 2.220751e-03  -4.528005e-03  0 
 1.660305e-03  -4.123727e-03  0 
 -1.170770e-04  -4.882921e-03  0 
 1.977534e-03  -4.149252e-03  0 
 1.683230e-03  -3.517169e-03  0 
 2.121973e-03  -3.364020e-03  0 
 1.689508e-03  -3.676378e-03  0 
VECTORS displacement_ITER23 FLOAT
 1.643023e-03  -3.155334e-03  0 
 2.946868e-03  -3.154159e-03  0 
 2.574114e-03  -2.240237e-03  0 
 2.685766e-03  -2.460574e-03  0 
 2.791733e-03  -2.769936e-03  0 
 1.799279e-03  -3.096094e-03  0 
 2.116136e-03  -3.055578e-03  0 
 2.454860e-03  -3.076438e-03  0 
 2.172955e-03  -2.334241e-03  0 
 2.339376e-03  -2.791488e-03  0 
 1.923080e-03  -2.849712e-03  0 
 2.414121e-03  -2.156164e-03  0 
 2.135637e-03  -2.757606e-03  0 
 2.508011e-03  -2.593178e-03  0 
 1.766659e-03  -2.662832e-03  0 
 2.194485e-03  -2.118051e-03  0 
 1.960400e-03  -2.275207e-03  0 
 2.369186e-03  -2.347925e-03  0 
 2.038020e-03  -2.554877e-03  0 
 2.252700e-03  -2.533999e-03  0 
 2.600046e-03  -2.836423e-03  0 
 1.722772e-03  -2.951395e-03  0 
 3.773042e-03  -2.457783e-03  0 
 3.668365e-03  -1.979152e-03  0 
 2.017544e-03  -3.460349e-03  0 
 1.888438e-03  -4.204255e-03  0 
 -1.287704e-03  -3.573637e-03  0 
 2.374374e-03  -4.222629e-03  0 
 2.078401e-03  -3.806758e-03  0 
 2.755283e-03  -3.585031e-03  0 
 1.976943e-03  -3.953718e-03  0 
VECTORS displacement_ITER24 FLOAT
 1.989932e-03  -3.248259e-03  0 
 3.066847e-03  -3.237749e-03  0 
 2.691210e-03  -2.501285e-03  0 
 2.804951e-03  -2.660525e-03  0 
 2.911402e-03  -2.912051e-03  0 
 2.091761e-03  -3.185081e-03  0 
 2.351654e-03  -3.141919e-03  0 
 2.632610e-03  -3.161021e-03  0 
 2.403746e-03  -2.547727e-03  0 
 2.536354e-03  -2.919685e-03  0 
 2.197848e-03  -2.980040e-03  0 
 2.579864e-03  -2.414113e-03  0 
 2.371823e-03  -2.895696e-03  0 
 2.673339e-03  -2.755891e-03  0 
 2.072632e-03  -2.828377e-03  0 
 2.417468e-03  -2.378487e-03  0 
 2.237980e-03  -2.497355e-03  0 
 2.555806e-03  -2.559189e-03  0 
 2.296718e-03  -2.729859e-03  0 
 2.466619e-03  -2.708704e-03  0 
 2.756101e-03  -2.956491e-03  0 
 2.036968e-03  -3.075560e-03  0 
 3.629531e-03  -2.329185e-03  0 
 3.572049e-03  -1.984124e-03  0 
 2.043147e-03  -3.273231e-03  0 
 2.077262e-03  -4.099373e-03  0 
 -1.113920e-03  -3.146501e-03  0 
 2.534733e-03  -4.232235e-03  0 
 2.319376e-03  -3.833172e-03  0 
 2.914896e-03  -3.575607e-03  0 
 2.213551e-03  -4.028663e-03  0 
VECTORS displacement_ITER25 FLOAT
 1.704020e-03  -3.186935e-03  0 
 2.847648e-03  -3.167604e-03  0 
 2.468713e-03  -2.388780e-03  0 
 2.585208e-03  -2.559675e-03  0 
 2.692160e-03  -2.826591e-03  0 
 1.824074e-03  -3.120964e-03  0 
 2.100365e-03  -3.075521e-03  0 
 2.397397e-03  -3.092595e-03  0 
 2.156671e-03  -2.445612e-03  0 
 2.296598e-03  -2.839791e-03  0 
 1.936208e-03  -2.902862e-03  0 
 2.349544e-03  -2.299231e-03  0 
 2.121321e-03  -2.814793e-03  0 
 2.442643e-03  -2.665206e-03  0 
 1.802016e-03  -2.741888e-03  0 
 2.174238e-03  -2.262470e-03  0 
 1.976850e-03  -2.394460e-03  0 
 2.320504e-03  -2.456026e-03  0 
 2.040491e-03  -2.639545e-03  0 
 2.223229e-03  -2.616584e-03  0 
 2.527436e-03  -2.877391e-03  0 
 1.763134e-03  -3.001344e-03  0 
 3.312958e-03  -2.105804e-03  0 
 3.201020e-03  -1.827539e-03  0 
 1.870589e-03  -3.063847e-03  0 
 1.839155e-03  -4.008587e-03  0 
 -1.087263e-03  -3.117599e-03  0 
 2.306773e-03  -4.021456e-03  0 
 2.061309e-03  -3.716856e-03  0 
 2.694354e-03  -3.581209e-03  0 
 1.954878e-03  -3.854877e-03  0 
VECTORS displacement_ITER26 FLOAT
 1.568017e-03  -2.942984e-03  0 
 2.818738e-03  -2.915157e-03  0 
 2.436091e-03  -2.066205e-03  0 
 2.555799e-03  -2.258030e-03  0 
 2.663627e-03  -2.549728e-03  0 
 1.718462e-03  -2.873889e-03  0 
 2.021086e-03  -2.826260e-03  0 
 2.343641e-03  -2.841884e-03  0 
 2.081911e-03  -2.139691e-03  0 
 2.234978e-03  -2.570354e-03  0 
 1.839709e-03  -2.635307e-03  0 
 2.301907e-03  -1.973840e-03  0 
 2.042453e-03  -2.542469e-03  0 
 2.395121e-03  -2.379404e-03  0 
 1.690890e-03  -2.458903e-03  0 
 2.104581e-03  -1.934980e-03  0 
 1.880061e-03  -2.085992e-03  0 
 2.264766e-03  -2.149676e-03  0 
 1.951973e-03  -2.351554e-03  0 
 2.155042e-03  -2.327120e-03  0 
 2.483604e-03  -2.610379e-03  0 
 1.647141e-03  -2.737485e-03  0 
 3.227023e-03  -2.022894e-03  0 
 2.953105e-03  -1.740821e-03  0 
 2.236180e-03  -2.873659e-03  0 
 1.978049e-03  -3.653929e-03  0 
 2.767481e-06  -3.119660e-03  0 
 2.325265e-03  -3.527935e-03  0 
 2.004721e-03  -3.330092e-03  0 
 2.690591e-03  -3.415961e-03  0 
 1.904799e-03  -3.387218e-03  0 
VECTORS displacement_ITER27 FLOAT
 1.180437e-03  -3.008973e-03  0 
 2.558031e-03  -2.977894e-03  0 
 2.173706e-03  -2.036804e-03  0 
 2.295389e-03  -2.257952e-03  0 
 2.403713e-03  -2.581560e-03  0 
 1.363040e-03  -2.939220e-03  0 
 1.697105e-03  -2.891151e-03  0 
 2.051691e-03  -2.906141e-03  0 
 1.762945e-03  -2.134528e-03  0 
 1.932836e-03  -2.610976e-03  0 
 1.494582e-03  -2.677198e-03  0 
 2.017781e-03  -1.943159e-03  0 
 1.718758e-03  -2.579000e-03  0 
 2.110734e-03  -2.399897e-03  0 
 1.328429e-03  -2.482013e-03  0 
 1.791666e-03  -1.902837e-03  0 
 1.534114e-03  -2.077783e-03  0 
 1.969754e-03  -2.143994e-03  0 
 1.616270e-03  -2.368652e-03  0 
 1.844418e-03  -2.342607e-03  0 
 2.204013e-03  -2.654565e-03  0 
 1.279725e-03  -2.783451e-03  0 
 3.033014e-03  -2.214669e-03  0 
 2.693991e-03  -1.740012e-03  0 
 2.171187e-03  -2.504360e-03  0 
 1.754279e-03  -3.631885e-03  0 
 2.800260e-05  -3.085715e-03  0 
 2.157329e-03  -3.247383e-03  0 
 1.712496e-03  -3.269771e-03  0 
 2.451361e-03  -3.574571e-03  0 
 1.633943e-03  -3.197674e-03  0 