# vtk DataFile Version 3.1
this is an vtk file created by FEMAC
ASCII
DATASET UNSTRUCTURED_GRID
POINTS 32 FLOAT
2.000000 6.000000 0.000000
3.000000 6.000000 0.000000
1.500000 6.000000 0.000000
1.750000 6.000000 0.000000
2.000000 5.250000 0.000000
2.000000 5.500000 0.000000
2.000000 5.750000 0.000000
2.250000 6.000000 0.000000
2.500000 6.000000 0.000000
2.750000 6.000000 0.000000
3.000000 5.750000 0.000000
1.500000 5.225000 0.000000
1.828194 5.341416 0.000000
1.808128 5.581646 0.000000
1.399662 5.398247 0.000000
1.630720 5.401594 0.000000
1.507893 5.661856 0.000000
1.761003 5.832250 0.000000
2.779567 5.382160 0.000000
2.630775 5.827766 0.000000
2.755439 5.624066 0.000000
2.824828 5.832129 0.000000
2.612481 5.213004 0.000000
2.512458 5.452138 0.000000
2.226064 5.411783 0.000000
2.371000 5.200321 0.000000
2.336993 5.654341 0.000000
2.536356 5.684027 0.000000
2.137611 5.638225 0.000000
2.396521 5.840189 0.000000
2.186854 5.813792 0.000000
2.169413 5.172421 0.000000
CELLS 43 172 
3 12  4  5
3 6 13  5
3 14 11 15
3 3 17  0
3 17  6  0
3 17 13  6
3 12  5 13
3 12 13 15
3 14 15 16
3 16 15 13
3 2 17  3
3 16 17  2
3 16 13 17
3 19  9  8
3 9 21  1
3 21 10  1
3 19 21  9
3 10 21 20
3 19 20 21
3 23 18 20
3 4 24  5
3 26 24 23
3 22 18 23
3 23 25 22
3 23 24 25
3 27 20 19
3 27 26 23
3 20 27 23
3 8 29 19
3 7 29  8
3 29 27 19
3 26 27 29
3 28  5 24
3 5 28  6
3 26 28 24
3 6 30  0
3 30  7  0
3 30  6 28
3 28 26 30
3 30 29  7
3 26 29 30
3 24 31 25
3 31 24  4
CELL_TYPES 43
5 5 5 5 5 5 5 5 5 5 5 5 5 5 5 5 5 5 5 5 5 5 5 5 5 5 5 5 5 5 5 5 5 5 5 5 5 5 5 5 5 5 5 
POINT_DATA 32
VECTORS displacement_ITER1 FLOAT
 8.902923e-02  -9.422145e-02  0 
 1.825805e-01  -2.201825e-01  0 
 8.895794e-02  -6.151409e-02  0 
 8.899454e-02  -7.786114e-02  0 
 4.012076e-02  -9.400908e-02  0 
 5.634611e-02  -9.412111e-02  0 
 7.266191e-02  -9.418418e-02  0 
 1.089744e-01  -1.303518e-01  0 
 1.288979e-01  -1.558306e-01  0 
 1.545188e-01  -1.834364e-01  0 
 1.419023e-01  -1.959605e-01  0 
 3.821370e-02  -6.142986e-02  0 
 4.599674e-02  -8.289522e-02  0 
 6.164551e-02  -8.162949e-02  0 
 4.961510e-02  -5.486686e-02  0 
 4.986643e-02  -7.003093e-02  0 
 6.688213e-02  -6.200637e-02  0 
 7.802481e-02  -7.855496e-02  0 
 1.073676e-01  -1.144707e-01  0 
 1.215364e-01  -1.526011e-01  0 
 1.095580e-01  -1.449120e-01  0 
 1.398990e-01  -1.750821e-01  0 
 1.032597e-01  -9.696892e-02  0 
 8.564622e-02  -1.159594e-01  0 
 6.369693e-02  -1.041504e-01  0 
 8.001855e-02  -9.005561e-02  0 
 8.308301e-02  -1.180670e-01  0 
 9.963885e-02  -1.329399e-01  0 
 7.122460e-02  -1.043363e-01  0 
 1.033978e-01  -1.333460e-01  0 
 8.538554e-02  -1.113730e-01  0 
 6.076639e-02  -8.150232e-02  0 
VECTORS displacement_ITER2 FLOAT
 4.130316e-02  -4.715533e-02  0 
 9.547281e-02  -8.833132e-02  0 
 4.124927e-02  -3.914680e-02  0 
 4.127739e-02  -4.315185e-02  0 
 2.960333e-02  -4.688913e-02  0 
 3.336949e-02  -4.703876e-02  0 
 3.729471e-02  -4.711527e-02  0 
 6.002293e-02  -7.204070e-02  0 
 7.399970e-02  -8.588839e-02  0 
 8.575880e-02  -9.294599e-02  0 
 1.070983e-01  -7.005595e-02  0 
 2.891575e-02  -3.919922e-02  0 
 3.090795e-02  -4.435524e-02  0 
 3.462214e-02  -4.407179e-02  0 
 3.172823e-02  -3.759839e-02  0 
 3.179303e-02  -4.130486e-02  0 
 3.590824e-02  -3.931899e-02  0 
 3.859352e-02  -4.331019e-02  0 
 5.847832e-02  -6.817379e-02  0 
 7.642149e-02  -8.088448e-02  0 
 7.771891e-02  -7.189928e-02  0 
 8.959408e-02  -8.524455e-02  0 
 4.827772e-02  -5.491646e-02  0 
 5.369830e-02  -5.330860e-02  0 
 3.915078e-02  -4.624119e-02  0 
 4.105647e-02  -4.174444e-02  0 
 4.989959e-02  -5.674054e-02  0 
 6.457822e-02  -6.788477e-02  0 
 4.012250e-02  -5.014052e-02  0 
 6.120150e-02  -7.122562e-02  0 
 4.574360e-02  -5.589368e-02  0 
 3.570438e-02  -4.007352e-02  0 
VECTORS displacement_ITER3 FLOAT
 2.884660e-02  -2.441018e-02  0 
 3.879285e-02  -1.636006e-02  0 
 2.887086e-02  -1.172017e-02  0 
 2.885655e-02  -1.807271e-02  0 
 1.021593e-02  -2.411488e-02  0 
 1.626302e-02  -2.430551e-02  0 
 2.251068e-02  -2.439512e-02  0 
 3.141130e-02  -3.291109e-02  0 
 3.282192e-02  -3.601665e-02  0 
 3.410983e-02  -3.172167e-02  0 
 4.079738e-02  -2.385118e-02  0 
 9.200918e-03  -1.185919e-02  0 
 1.233880e-02  -2.003102e-02  0 
 1.827097e-02  -1.957544e-02  0 
 1.367644e-02  -9.300855e-03  0 
 1.376701e-02  -1.517477e-02  0 
 2.032528e-02  -1.202115e-02  0 
 2.459454e-02  -1.836250e-02  0 
 3.187536e-02  -2.540386e-02  0 
 3.580251e-02  -3.295004e-02  0 
 3.937920e-02  -2.927618e-02  0 
 3.945599e-02  -2.680407e-02  0 
 2.151458e-02  -1.425580e-02  0 
 2.587370e-02  -2.302662e-02  0 
 1.651583e-02  -2.199414e-02  0 
 1.224266e-02  -1.546233e-02  0 
 2.592448e-02  -2.807219e-02  0 
 3.271492e-02  -3.029494e-02  0 
 2.126875e-02  -2.552775e-02  0 
 3.074708e-02  -3.343278e-02  0 
 2.601698e-02  -2.887251e-02  0 
 8.728729e-03  -2.182433e-02  0 
VECTORS displacement_ITER4 FLOAT
 5.514825e-03  -3.906657e-03  0 
 2.608476e-02  -4.712905e-03  0 
 5.530994e-03  -2.437826e-03  0 
 5.515988e-03  -3.163006e-03  0 
 3.632083e-03  -3.519553e-03  0 
 4.080238e-03  -3.769355e-03  0 
 4.758757e-03  -3.900757e-03  0 
 9.598575e-03  -8.538506e-03  0 
 1.311768e-02  -9.724564e-03  0 
 1.751654e-02  -8.538885e-03  0 
 1.870088e-02  -3.564653e-03  0 
 3.074342e-03  -2.430260e-03  0 
 3.683642e-03  -3.295823e-03  0 
 4.249924e-03  -3.337864e-03  0 
 3.692015e-03  -2.109241e-03  0 
 3.727972e-03  -2.858555e-03  0 
 4.508075e-03  -2.461900e-03  0 
 5.012603e-03  -3.198306e-03  0 
 9.807854e-03  -5.942652e-03  0 
 1.510697e-02  -6.578865e-03  0 
 1.552892e-02  -4.896874e-03  0 
 1.844071e-02  -3.992340e-03  0 
 5.716992e-03  -3.014643e-03  0 
 8.912230e-03  -2.709975e-03  0 
 5.532214e-03  -2.607089e-03  0 
 3.754618e-03  -2.512470e-03  0 
 8.491128e-03  -3.965288e-03  0 
 1.234255e-02  -5.076564e-03  0 
 5.821176e-03  -3.781543e-03  0 
 1.085133e-02  -7.095922e-03  0 
 6.884264e-03  -5.086996e-03  0 
 3.121490e-03  -4.558952e-03  0 
VECTORS displacement_ITER5 FLOAT
 2.145344e-03  -2.036039e-03  0 
 1.459585e-02  8.455573e-04  0 
 2.192653e-03  -1.433016e-03  0 
 2.164315e-03  -1.744857e-03  0 
 1.766879e-03  -1.651192e-03  0 
 1.694815e-03  -1.888515e-03  0 
 1.862968e-03  -2.013664e-03  0 
 4.080699e-03  -3.816719e-03  0 
 6.139760e-03  -3.692126e-03  0 
 9.182170e-03  -2.395672e-03  0 
 1.116906e-02  1.600851e-03  0 
 1.274601e-03  -1.607651e-03  0 
 1.632465e-03  -1.780617e-03  0 
 1.702615e-03  -1.841905e-03  0 
 1.564649e-03  -1.475744e-03  0 
 1.569468e-03  -1.750715e-03  0 
 1.809443e-03  -1.576163e-03  0 
 1.952807e-03  -1.777351e-03  0 
 6.409364e-03  1.324913e-03  0 
 7.913564e-03  -1.124677e-03  0 
 8.494819e-03  9.796885e-04  0 
 1.040176e-02  8.256752e-04  0 
 5.266476e-03  1.736423e-03  0 
 5.203965e-03  8.551317e-04  0 
 3.074648e-03  -7.862765e-04  0 
 3.677884e-03  3.789720e-04  0 
 4.203105e-03  -9.739450e-04  0 
 6.410206e-03  -4.687092e-04  0 
 2.650636e-03  -1.672843e-03  0 
 5.167770e-03  -2.455470e-03  0 
 3.000887e-03  -2.243880e-03  0 
 2.674184e-03  -1.623726e-03  0 
VECTORS displacement_ITER6 FLOAT
 2.290978e-03  -2.277628e-03  0 
 6.712320e-03  -2.652713e-03  0 
 2.289434e-03  -1.735289e-03  0 
 2.289123e-03  -2.003182e-03  0 
 1.601850e-03  -2.102718e-03  0 
 1.741417e-03  -2.251525e-03  0 
 2.006848e-03  -2.281796e-03  0 
 3.128315e-03  -3.337937e-03  0 
 3.964345e-03  -3.693150e-03  0 
 5.057169e-03  -3.726042e-03  0 
 5.100537e-03  -3.528382e-03  0 
 1.423296e-03  -1.797898e-03  0 
 1.591336e-03  -2.085259e-03  0 
 1.820799e-03  -2.078947e-03  0 
 1.641497e-03  -1.661277e-03  0 
 1.634952e-03  -1.919035e-03  0 
 1.934805e-03  -1.755173e-03  0 
 2.105735e-03  -2.013663e-03  0 
 3.342554e-03  -2.756402e-03  0 
 4.349876e-03  -2.994135e-03  0 
 4.076063e-03  -2.496099e-03  0 
 5.282886e-03  -2.825514e-03  0 
 2.525554e-03  -2.740589e-03  0 
 3.133688e-03  -2.233514e-03  0 
 2.277423e-03  -1.990085e-03  0 
 2.307020e-03  -1.913897e-03  0 
 2.853761e-03  -2.436526e-03  0 
 3.574461e-03  -2.563965e-03  0 
 2.211127e-03  -2.347885e-03  0 
 3.352176e-03  -3.021043e-03  0 
 2.510866e-03  -2.635065e-03  0 
 1.897896e-03  -1.584188e-03  0 
VECTORS displacement_ITER7 FLOAT
 2.589983e-03  -2.487430e-03  0 
 4.541691e-03  -3.733047e-03  0 
 2.599222e-03  -1.729057e-03  0 
 2.592883e-03  -2.107888e-03  0 
 1.504859e-03  -2.402001e-03  0 
 1.849142e-03  -2.458760e-03  0 
 2.211171e-03  -2.483715e-03  0 
 3.028995e-03  -3.320176e-03  0 
 3.370036e-03  -3.679088e-03  0 
 3.795284e-03  -3.723791e-03  0 
 4.035202e-03  -3.153653e-03  0 
 1.498323e-03  -1.827993e-03  0 
 1.621212e-03  -2.211590e-03  0 
 1.959104e-03  -2.199215e-03  0 
 1.725386e-03  -1.665273e-03  0 
 1.707076e-03  -1.968300e-03  0 
 2.089239e-03  -1.766571e-03  0 
 2.335560e-03  -2.127654e-03  0 
 3.171636e-03  -2.930117e-03  0 
 3.467983e-03  -3.441686e-03  0 
 3.641971e-03  -3.163140e-03  0 
 3.823714e-03  -3.319724e-03  0 
 2.452690e-03  -2.502831e-03  0 
 2.783135e-03  -2.629354e-03  0 
 2.063694e-03  -2.414203e-03  0 
 2.086980e-03  -2.061754e-03  0 
 2.625418e-03  -2.882957e-03  0 
 3.152503e-03  -3.139335e-03  0 
 2.224029e-03  -2.629857e-03  0 
 3.009202e-03  -3.319463e-03  0 
 2.536945e-03  -2.876561e-03  0 
 1.827042e-03  -2.123180e-03  0 
VECTORS displacement_ITER8 FLOAT
 2.285592e-03  -2.179026e-03  0 
 4.697718e-03  -2.662899e-03  0 
 2.287805e-03  -1.536646e-03  0 
 2.285376e-03  -1.855210e-03  0 
 1.389590e-03  -2.055615e-03  0 
 1.640217e-03  -2.155506e-03  0 
 1.955702e-03  -2.181292e-03  0 
 2.749455e-03  -2.924222e-03  0 
 3.202219e-03  -3.220492e-03  0 
 3.793818e-03  -3.230581e-03  0 
 4.167180e-03  -2.647707e-03  0 
 1.299571e-03  -1.602449e-03  0 
 1.451666e-03  -1.952612e-03  0 
 1.736429e-03  -1.938016e-03  0 
 1.529603e-03  -1.457588e-03  0 
 1.519928e-03  -1.744372e-03  0 
 1.858464e-03  -1.557240e-03  0 
 2.067917e-03  -1.869361e-03  0 
 2.954965e-03  -2.126838e-03  0 
 3.414627e-03  -2.831767e-03  0 
 3.390027e-03  -2.444467e-03  0 
 3.973643e-03  -2.689221e-03  0 
 2.386665e-03  -1.871028e-03  0 
 2.532853e-03  -2.110811e-03  0 
 1.933751e-03  -2.071510e-03  0 
 1.963562e-03  -1.906333e-03  0 
 2.412233e-03  -2.371829e-03  0 
 2.948284e-03  -2.515312e-03  0 
 2.010628e-03  -2.274269e-03  0 
 2.810866e-03  -2.804326e-03  0 
 2.285263e-03  -2.477607e-03  0 
 1.662140e-03  -1.838142e-03  0 
VECTORS displacement_ITER9 FLOAT
 2.213316e-03  -2.107461e-03  0 
 4.726926e-03  -2.480972e-03  0 
 2.216966e-03  -1.497103e-03  0 
 2.213759e-03  -1.800193e-03  0 
 1.366064e-03  -1.982393e-03  0 
 1.603027e-03  -2.083299e-03  0 
 1.901223e-03  -2.108553e-03  0 
 2.690550e-03  -2.844096e-03  0 
 3.152903e-03  -3.113585e-03  0 
 3.760883e-03  -3.076563e-03  0 
 4.116054e-03  -2.482522e-03  0 
 1.279484e-03  -1.551437e-03  0 
 1.424953e-03  -1.893286e-03  0 
 1.694182e-03  -1.878826e-03  0 
 1.496361e-03  -1.418683e-03  0 
 1.490106e-03  -1.696464e-03  0 
 1.809577e-03  -1.521161e-03  0 
 2.006877e-03  -1.814287e-03  0 
 2.834348e-03  -2.137666e-03  0 
 3.393273e-03  -2.696085e-03  0 
 3.411513e-03  -2.296731e-03  0 
 3.953807e-03  -2.501083e-03  0 
 2.210284e-03  -1.896151e-03  0 
 2.519989e-03  -1.959101e-03  0 
 1.904279e-03  -1.964228e-03  0 
 1.941047e-03  -1.767281e-03  0 
 2.380855e-03  -2.259385e-03  0 
 2.938899e-03  -2.388302e-03  0 
 1.968676e-03  -2.184145e-03  0 
 2.773393e-03  -2.703558e-03  0 
 2.233256e-03  -2.389873e-03  0 
 1.674038e-03  -1.771974e-03  0 
VECTORS displacement_ITER10 FLOAT
 2.206103e-03  -2.098368e-03  0 
 4.694672e-03  -2.460787e-03  0 
 2.210351e-03  -1.489056e-03  0 
 2.206817e-03  -1.791822e-03  0 
 1.365361e-03  -1.970533e-03  0 
 1.598266e-03  -2.073542e-03  0 
 1.895093e-03  -2.099097e-03  0 
 2.671547e-03  -2.823851e-03  0 
 3.126084e-03  -3.085120e-03  0 
 3.734687e-03  -3.052445e-03  0 
 4.096511e-03  -2.458483e-03  0 
 1.280620e-03  -1.546610e-03  0 
 1.421651e-03  -1.885056e-03  0 
 1.688995e-03  -1.870393e-03  0 
 1.492756e-03  -1.415231e-03  0 
 1.486394e-03  -1.689334e-03  0 
 1.803903e-03  -1.514749e-03  0 
 2.000215e-03  -1.806155e-03  0 
 2.858534e-03  -2.109877e-03  0 
 3.364407e-03  -2.667425e-03  0 
 3.372987e-03  -2.258048e-03  0 
 3.927972e-03  -2.478763e-03  0 
 2.251010e-03  -1.881748e-03  0 
 2.523513e-03  -1.971585e-03  0 
 1.899014e-03  -1.961773e-03  0 
 1.929764e-03  -1.759038e-03  0 
 2.373505e-03  -2.259581e-03  0 
 2.914432e-03  -2.370535e-03  0 
 1.962814e-03  -2.177998e-03  0 
 2.752868e-03  -2.684274e-03  0 
 2.224970e-03  -2.382368e-03  0 
 1.663766e-03  -1.789875e-03  0 
VECTORS displacement_ITER11 FLOAT
 2.205013e-03  -2.097458e-03  0 
 4.704815e-03  -2.456204e-03  0 
 2.209258e-03  -1.487852e-03  0 
 2.205733e-03  -1.790792e-03  0 
 1.363986e-03  -1.969669e-03  0 
 1.597134e-03  -2.072515e-03  0 
 1.893879e-03  -2.098174e-03  0 
 2.674499e-03  -2.828610e-03  0 
 3.130266e-03  -3.090693e-03  0 
 3.739027e-03  -3.053031e-03  0 
 4.102478e-03  -2.453703e-03  0 
 1.279009e-03  -1.546106e-03  0 
 1.420505e-03  -1.883990e-03  0 
 1.687773e-03  -1.869465e-03  0 
 1.491471e-03  -1.414203e-03  0 
 1.485049e-03  -1.688336e-03  0 
 1.802742e-03  -1.513707e-03  0 
 1.999043e-03  -1.805138e-03  0 
 2.858313e-03  -2.107874e-03  0 
 3.370947e-03  -2.671175e-03  0 
 3.387730e-03  -2.258997e-03  0 
 3.935071e-03  -2.475081e-03  0 
 2.256291e-03  -1.874620e-03  0 
 2.523715e-03  -1.968297e-03  0 
 1.901927e-03  -1.966049e-03  0 
 1.935610e-03  -1.771678e-03  0 
 2.374658e-03  -2.259030e-03  0 
 2.921512e-03  -2.373502e-03  0 
 1.963113e-03  -2.179010e-03  0 
 2.756793e-03  -2.688824e-03  0 
 2.224931e-03  -2.383148e-03  0 
 1.639759e-03  -1.783571e-03  0 
VECTORS displacement_ITER12 FLOAT
 2.205756e-03  -2.097881e-03  0 
 4.702388e-03  -2.456624e-03  0 
 2.209879e-03  -1.487797e-03  0 
 2.206428e-03  -1.790957e-03  0 
 1.363488e-03  -1.970478e-03  0 
 1.597143e-03  -2.073169e-03  0 
 1.894311e-03  -2.098658e-03  0 
 2.674522e-03  -2.829034e-03  0 
 3.129317e-03  -3.091062e-03  0 
 3.737372e-03  -3.053029e-03  0 
 4.100805e-03  -2.454594e-03  0 
 1.278549e-03  -1.545509e-03  0 
 1.420195e-03  -1.884321e-03  0 
 1.687983e-03  -1.869699e-03  0 
 1.491300e-03  -1.413593e-03  0 
 1.484926e-03  -1.688241e-03  0 
 1.803097e-03  -1.513463e-03  0 
 1.999602e-03  -1.805266e-03  0 
 2.857846e-03  -2.116332e-03  0 
 3.369865e-03  -2.671768e-03  0 
 3.388087e-03  -2.258367e-03  0 
 3.933739e-03  -2.475154e-03  0 
 2.252616e-03  -1.873999e-03  0 
 2.524039e-03  -1.968921e-03  0 
 1.901222e-03  -1.968404e-03  0 
 1.934370e-03  -1.772779e-03  0 
 2.374375e-03  -2.260688e-03  0 
 2.921175e-03  -2.374458e-03  0 
 1.963234e-03  -2.180116e-03  0 
 2.756331e-03  -2.689880e-03  0 
 2.225135e-03  -2.384068e-03  0 
 1.645144e-03  -1.793540e-03  0 
VECTORS displacement_ITER13 FLOAT
 2.205455e-03  -2.097652e-03  0 
 4.702556e-03  -2.456584e-03  0 
 2.209586e-03  -1.487811e-03  0 
 2.206132e-03  -1.790853e-03  0 
 1.363660e-03  -1.970164e-03  0 
 1.597147e-03  -2.072904e-03  0 
 1.894132e-03  -2.098429e-03  0 
 2.674633e-03  -2.829039e-03  0 
 3.129675e-03  -3.091295e-03  0 
 3.737616e-03  -3.053192e-03  0 
 4.100939e-03  -2.454449e-03  0 
 1.278543e-03  -1.545704e-03  0 
 1.420289e-03  -1.884136e-03  0 
 1.687910e-03  -1.869596e-03  0 
 1.491298e-03  -1.413771e-03  0 
 1.484958e-03  -1.688300e-03  0 
 1.803023e-03  -1.513558e-03  0 
 1.999387e-03  -1.805161e-03  0 
 2.859117e-03  -2.115266e-03  0 
 3.370246e-03  -2.672099e-03  0 
 3.388281e-03  -2.259535e-03  0 
 3.933871e-03  -2.475486e-03  0 
 2.250866e-03  -1.872645e-03  0 
 2.523851e-03  -1.968485e-03  0 
 1.900846e-03  -1.967360e-03  0 
 1.932797e-03  -1.771530e-03  0 
 2.374390e-03  -2.260247e-03  0 
 2.921418e-03  -2.374529e-03  0 
 1.963103e-03  -2.179548e-03  0 
 2.756537e-03  -2.689843e-03  0 
 2.225051e-03  -2.383726e-03  0 
 1.644846e-03  -1.793349e-03  0 
VECTORS displacement_ITER14 FLOAT
 2.205460e-03  -2.097660e-03  0 
 4.702524e-03  -2.456587e-03  0 
 2.209594e-03  -1.487802e-03  0 
 2.206137e-03  -1.790852e-03  0 
 1.363658e-03  -1.970162e-03  0 
 1.597140e-03  -2.072903e-03  0 
 1.894129e-03  -2.098435e-03  0 
 2.674594e-03  -2.828993e-03  0 
 3.129621e-03  -3.091205e-03  0 
 3.737586e-03  -3.053113e-03  0 
 4.100911e-03  -2.454449e-03  0 
 1.278546e-03  -1.545717e-03  0 
 1.420283e-03  -1.884134e-03  0 
 1.687901e-03  -1.869595e-03  0 
 1.491298e-03  -1.413788e-03  0 
 1.484953e-03  -1.688303e-03  0 
 1.803014e-03  -1.513551e-03  0 
 1.999386e-03  -1.805162e-03  0 
 2.858968e-03  -2.115218e-03  0 
 3.370197e-03  -2.671991e-03  0 
 3.388289e-03  -2.259312e-03  0 
 3.933849e-03  -2.475394e-03  0 
 2.250674e-03  -1.873002e-03  0 
 2.523892e-03  -1.968423e-03  0 
 1.900874e-03  -1.967328e-03  0 
 1.932842e-03  -1.771518e-03  0 
 2.374392e-03  -2.260216e-03  0 
 2.921401e-03  -2.374440e-03  0 
 1.963100e-03  -2.179546e-03  0 
 2.756504e-03  -2.689781e-03  0 
 2.225042e-03  -2.383719e-03  0 
 1.644910e-03  -1.793247e-03  0 
CELL_DATA 43
TENSORS element_stresses FLOAT
 4.840967e-02  1.650201e-01  0 
 1.650201e-01  -3.964406e-01  0 
 0  0  0 

 2.014356e-03  6.530562e-02  0 
 6.530562e-02  -1.015234e-01  0 
 0  0  0 

 -2.530528e-02  9.928210e-03  0 
 9.928210e-03  6.521755e-02  0 
 0  0  0 

 -1.395687e-03  3.919278e-03  0 
 3.919278e-03  4.382727e-03  0 
 0  0  0 

 -1.198217e-02  1.483606e-02  0 
 1.483606e-02  -4.927121e-04  0 
 0  0  0 

 -5.578428e-03  1.768161e-02  0 
 1.768161e-02  2.651261e-02  0 
 0  0  0 

 -8.423909e-03  3.241659e-02  0 
 3.241659e-02  -3.154663e-02  0 
 0  0  0 

 5.979949e-03  8.952292e-02  0 
 8.952292e-02  -2.110301e-02  0 
 0  0  0 

 -1.302756e-02  8.647064e-03  0 
 8.647064e-03  1.060889e-01  0 
 0  0  0 

 -2.940442e-02  3.048427e-02  0 
 3.048427e-02  1.190896e-01  0 
 0  0  0 

 -1.328761e-02  1.491739e-02  0 
 1.491739e-02  1.800825e-03  0 
 0  0  0 

 -2.038018e-02  1.297233e-02  0 
 1.297233e-02  4.237949e-02  0 
 0  0  0 

 -4.756982e-02  4.344583e-02  0 
 4.344583e-02  2.164667e-02  0 
 0  0  0 

 1.908103e-03  4.631116e-04  0 
 4.631116e-04  -1.745853e-03  0 
 0  0  0 

 3.457581e-03  2.259578e-03  0 
 2.259578e-03  -1.340571e-03  0 
 0  0  0 

 2.285051e-03  1.940008e-03  0 
 1.940008e-03  6.769613e-04  0 
 0  0  0 

 2.212934e-03  9.261701e-04  0 
 9.261701e-04  -2.296306e-03  0 
 0  0  0 

 1.767139e-03  1.288315e-03  0 
 1.288315e-03  -4.024519e-04  0 
 0  0  0 

 2.693540e-03  2.084757e-03  0 
 2.084757e-03  -5.787466e-04  0 
 0  0  0 

 1.842164e-03  1.269818e-03  0 
 1.269818e-03  -1.152828e-04  0 
 0  0  0 

 1.741464e-03  9.542858e-04  0 
 9.542858e-04  1.114757e-04  0 
 0  0  0 

 1.807212e-03  9.238764e-04  0 
 9.238764e-04  -7.466412e-04  0 
 0  0  0 

 1.684733e-03  8.752379e-04  0 
 8.752379e-04  -2.008740e-04  0 
 0  0  0 

 1.165307e-03  9.738031e-04  0 
 9.738031e-04  -2.128608e-04  0 
 0  0  0 

 1.922175e-03  1.028718e-03  0 
 1.028718e-03  -2.701633e-04  0 
 0  0  0 

 2.106059e-03  1.096269e-03  0 
 1.096269e-03  -1.415405e-03  0 
 0  0  0 

 2.210812e-03  8.743665e-04  0 
 8.743665e-04  -1.054990e-03  0 
 0  0  0 

 2.200298e-03  1.152776e-03  0 
 1.152776e-03  -1.095461e-03  0 
 0  0  0 

 2.098579e-03  4.321893e-04  0 
 4.321893e-04  -1.846441e-03  0 
 0  0  0 

 1.395925e-03  8.258058e-05  0 
 8.258058e-05  -1.413947e-03  0 
 0  0  0 

 2.282436e-03  1.016583e-03  0 
 1.016583e-03  -1.363880e-03  0 
 0  0  0 

 2.076244e-03  7.661082e-04  0 
 7.661082e-04  -1.611560e-03  0 
 0  0  0 

 1.587454e-03  8.176568e-04  0 
 8.176568e-04  -4.142631e-04  0 
 0  0  0 

 1.577457e-03  3.966069e-04  0 
 3.966069e-04  3.711092e-04  0 
 0  0  0 

 1.823797e-03  5.605585e-04  0 
 5.605585e-04  -5.145701e-04  0 
 0  0  0 

 1.479939e-03  -2.173151e-04  0 
 -2.173151e-04  4.470836e-04  0 
 0  0  0 

 1.600836e-03  -8.826511e-04  0 
 -8.826511e-04  -9.190027e-04  0 
 0  0  0 

 1.265333e-03  -1.144090e-04  0 
 -1.144090e-04  -4.329107e-04  0 
 0  0  0 

 1.829844e-03  4.744385e-04  0 
 4.744385e-04  -5.248414e-04  0 
 0  0  0 

 1.907791e-03  3.181692e-04  0 
 3.181692e-04  -1.408484e-03  0 
 0  0  0 

 1.972738e-03  6.041956e-05  0 
 6.041956e-05  -1.329467e-03  0 
 0  0  0 

 1.198022e-03  7.473658e-04  0 
 7.473658e-04  -4.188690e-04  0 
 0  0  0 

 1.841632e-03  9.630727e-04  0 
 9.630727e-04  -3.266570e-04  0 
 0  0  0 

TENSORS element_stresses FLOAT
 4.840967e-02  1.650201e-01  0 
 1.650201e-01  -3.964406e-01  0 
 0  0  0 

 2.014356e-03  6.530562e-02  0 
 6.530562e-02  -1.015234e-01  0 
 0  0  0 

 -2.530528e-02  9.928210e-03  0 
 9.928210e-03  6.521755e-02  0 
 0  0  0 

 -1.395687e-03  3.919278e-03  0 
 3.919278e-03  4.382727e-03  0 
 0  0  0 

 -1.198217e-02  1.483606e-02  0 
 1.483606e-02  -4.927121e-04  0 
 0  0  0 

 -5.578428e-03  1.768161e-02  0 
 1.768161e-02  2.651261e-02  0 
 0  0  0 

 -8.423909e-03  3.241659e-02  0 
 3.241659e-02  -3.154663e-02  0 
 0  0  0 

 5.979949e-03  8.952292e-02  0 
 8.952292e-02  -2.110301e-02  0 
 0  0  0 

 -1.302756e-02  8.647064e-03  0 
 8.647064e-03  1.060889e-01  0 
 0  0  0 

 -2.940442e-02  3.048427e-02  0 
 3.048427e-02  1.190896e-01  0 
 0  0  0 

 -1.328761e-02  1.491739e-02  0 
 1.491739e-02  1.800825e-03  0 
 0  0  0 

 -2.038018e-02  1.297233e-02  0 
 1.297233e-02  4.237949e-02  0 
 0  0  0 

 -4.756982e-02  4.344583e-02  0 
 4.344583e-02  2.164667e-02  0 
 0  0  0 

 1.908103e-03  4.631116e-04  0 
 4.631116e-04  -1.745853e-03  0 
 0  0  0 

 3.457581e-03  2.259578e-03  0 
 2.259578e-03  -1.340571e-03  0 
 0  0  0 

 2.285051e-03  1.940008e-03  0 
 1.940008e-03  6.769613e-04  0 
 0  0  0 

 2.212934e-03  9.261701e-04  0 
 9.261701e-04  -2.296306e-03  0 
 0  0  0 

 1.767139e-03  1.288315e-03  0 
 1.288315e-03  -4.024519e-04  0 
 0  0  0 

 2.693540e-03  2.084757e-03  0 
 2.084757e-03  -5.787466e-04  0 
 0  0  0 

 1.842164e-03  1.269818e-03  0 
 1.269818e-03  -1.152828e-04  0 
 0  0  0 

 1.741464e-03  9.542858e-04  0 
 9.542858e-04  1.114757e-04  0 
 0  0  0 

 1.807212e-03  9.238764e-04  0 
 9.238764e-04  -7.466412e-04  0 
 0  0  0 

 1.684733e-03  8.752379e-04  0 
 8.752379e-04  -2.008740e-04  0 
 0  0  0 

 1.165307e-03  9.738031e-04  0 
 9.738031e-04  -2.128608e-04  0 
 0  0  0 

 1.922175e-03  1.028718e-03  0 
 1.028718e-03  -2.701633e-04  0 
 0  0  0 

 2.106059e-03  1.096269e-03  0 
 1.096269e-03  -1.415405e-03  0 
 0  0  0 

 2.210812e-03  8.743665e-04  0 
 8.743665e-04  -1.054990e-03  0 
 0  0  0 

 2.200298e-03  1.152776e-03  0 
 1.152776e-03  -1.095461e-03  0 
 0  0  0 

 2.098579e-03  4.321893e-04  0 
 4.321893e-04  -1.846441e-03  0 
 0  0  0 

 1.395925e-03  8.258058e-05  0 
 8.258058e-05  -1.413947e-03  0 
 0  0  0 

 2.282436e-03  1.016583e-03  0 
 1.016583e-03  -1.363880e-03  0 
 0  0  0 

 2.076244e-03  7.661082e-04  0 
 7.661082e-04  -1.611560e-03  0 
 0  0  0 

 1.587454e-03  8.176568e-04  0 
 8.176568e-04  -4.142631e-04  0 
 0  0  0 

 1.577457e-03  3.966069e-04  0 
 3.966069e-04  3.711092e-04  0 
 0  0  0 

 1.823797e-03  5.605585e-04  0 
 5.605585e-04  -5.145701e-04  0 
 0  0  0 

 1.479939e-03  -2.173151e-04  0 
 -2.173151e-04  4.470836e-04  0 
 0  0  0 

 1.600836e-03  -8.826511e-04  0 
 -8.826511e-04  -9.190027e-04  0 
 0  0  0 

 1.265333e-03  -1.144090e-04  0 
 -1.144090e-04  -4.329107e-04  0 
 0  0  0 

 1.829844e-03  4.744385e-04  0 
 4.744385e-04  -5.248414e-04  0 
 0  0  0 

 1.907791e-03  3.181692e-04  0 
 3.181692e-04  -1.408484e-03  0 
 0  0  0 

 1.972738e-03  6.041956e-05  0 
 6.041956e-05  -1.329467e-03  0 
 0  0  0 

 1.198022e-03  7.473658e-04  0 
 7.473658e-04  -4.188690e-04  0 
 0  0  0 

 1.841632e-03  9.630727e-04  0 
 9.630727e-04  -3.266570e-04  0 
 0  0  0 

