# vtk DataFile Version 3.1
this is an vtk file created by FEMAC
ASCII
DATASET UNSTRUCTURED_GRID
POINTS 814 FLOAT
0.000000 0.000000 0.000000
1.000000 0.000000 0.000000
2.000000 0.000000 0.000000
3.000000 0.000000 0.000000
4.000000 0.000000 0.000000
5.000000 0.000000 0.000000
6.000000 0.000000 0.000000
0.000000 1.000000 0.000000
1.000000 1.000000 0.000000
0.000000 2.000000 0.000000
1.000000 2.000000 0.000000
0.000000 3.000000 0.000000
1.000000 3.000000 0.000000
0.000000 4.000000 0.000000
1.000000 4.000000 0.000000
0.000000 5.000000 0.000000
1.000000 5.000000 0.000000
0.000000 6.000000 0.000000
1.000000 6.000000 0.000000
2.000000 1.000000 0.000000
2.000000 2.000000 0.000000
2.000000 3.000000 0.000000
2.000000 4.000000 0.000000
2.000000 5.000000 0.000000
2.000000 6.000000 0.000000
3.000000 1.000000 0.000000
3.000000 2.000000 0.000000
3.000000 3.000000 0.000000
3.000000 4.000000 0.000000
3.000000 5.000000 0.000000
3.000000 6.000000 0.000000
4.000000 1.000000 0.000000
4.000000 2.000000 0.000000
4.000000 3.000000 0.000000
4.000000 4.000000 0.000000
4.000000 5.000000 0.000000
4.000000 6.000000 0.000000
5.000000 1.000000 0.000000
5.000000 2.000000 0.000000
5.000000 3.000000 0.000000
5.000000 4.000000 0.000000
5.000000 5.000000 0.000000
5.000000 6.000000 0.000000
6.000000 1.000000 0.000000
6.000000 2.000000 0.000000
6.000000 3.000000 0.000000
6.000000 4.000000 0.000000
6.000000 5.000000 0.000000
6.000000 6.000000 0.000000
0.250000 0.000000 0.000000
0.500000 0.000000 0.000000
0.750000 0.000000 0.000000
1.250000 0.000000 0.000000
1.500000 0.000000 0.000000
1.750000 0.000000 0.000000
2.250000 0.000000 0.000000
2.500000 0.000000 0.000000
2.750000 0.000000 0.000000
3.250000 0.000000 0.000000
3.500000 0.000000 0.000000
3.750000 0.000000 0.000000
4.250000 0.000000 0.000000
4.500000 0.000000 0.000000
4.750000 0.000000 0.000000
5.250000 0.000000 0.000000
5.500000 0.000000 0.000000
5.750000 0.000000 0.000000
0.250000 1.000000 0.000000
0.500000 1.000000 0.000000
0.750000 1.000000 0.000000
0.000000 0.250000 0.000000
0.000000 0.500000 0.000000
0.000000 0.750000 0.000000
1.000000 0.250000 0.000000
1.000000 0.500000 0.000000
1.000000 0.750000 0.000000
0.250000 2.000000 0.000000
0.500000 2.000000 0.000000
0.750000 2.000000 0.000000
0.000000 1.250000 0.000000
0.000000 1.500000 0.000000
0.000000 1.750000 0.000000
1.000000 1.250000 0.000000
1.000000 1.500000 0.000000
1.000000 1.750000 0.000000
0.250000 3.000000 0.000000
0.500000 3.000000 0.000000
0.750000 3.000000 0.000000
0.000000 2.250000 0.000000
0.000000 2.500000 0.000000
0.000000 2.750000 0.000000
1.000000 2.250000 0.000000
1.000000 2.500000 0.000000
1.000000 2.750000 0.000000
0.250000 4.000000 0.000000
0.500000 4.000000 0.000000
0.750000 4.000000 0.000000
0.000000 3.250000 0.000000
0.000000 3.500000 0.000000
0.000000 3.750000 0.000000
1.000000 3.250000 0.000000
1.000000 3.500000 0.000000
1.000000 3.750000 0.000000
0.250000 5.000000 0.000000
0.500000 5.000000 0.000000
0.750000 5.000000 0.000000
0.000000 4.250000 0.000000
0.000000 4.500000 0.000000
0.000000 4.750000 0.000000
1.000000 4.250000 0.000000
1.000000 4.500000 0.000000
1.000000 4.750000 0.000000
0.250000 6.000000 0.000000
0.500000 6.000000 0.000000
0.750000 6.000000 0.000000
0.000000 5.250000 0.000000
0.000000 5.500000 0.000000
0.000000 5.750000 0.000000
1.000000 5.250000 0.000000
1.000000 5.500000 0.000000
1.000000 5.750000 0.000000
1.250000 1.000000 0.000000
1.500000 1.000000 0.000000
1.750000 1.000000 0.000000
2.000000 0.250000 0.000000
2.000000 0.500000 0.000000
2.000000 0.750000 0.000000
1.250000 2.000000 0.000000
1.500000 2.000000 0.000000
1.750000 2.000000 0.000000
2.000000 1.250000 0.000000
2.000000 1.500000 0.000000
2.000000 1.750000 0.000000
1.250000 3.000000 0.000000
1.500000 3.000000 0.000000
1.750000 3.000000 0.000000
2.000000 2.250000 0.000000
2.000000 2.500000 0.000000
2.000000 2.750000 0.000000
1.250000 4.000000 0.000000
1.500000 4.000000 0.000000
1.750000 4.000000 0.000000
2.000000 3.250000 0.000000
2.000000 3.500000 0.000000
2.000000 3.750000 0.000000
1.250000 5.000000 0.000000
1.500000 5.000000 0.000000
1.750000 5.000000 0.000000
2.000000 4.250000 0.000000
2.000000 4.500000 0.000000
2.000000 4.750000 0.000000
1.250000 6.000000 0.000000
1.500000 6.000000 0.000000
1.750000 6.000000 0.000000
2.000000 5.250000 0.000000
2.000000 5.500000 0.000000
2.000000 5.750000 0.000000
2.250000 1.000000 0.000000
2.500000 1.000000 0.000000
2.750000 1.000000 0.000000
3.000000 0.250000 0.000000
3.000000 0.500000 0.000000
3.000000 0.750000 0.000000
2.250000 2.000000 0.000000
2.500000 2.000000 0.000000
2.750000 2.000000 0.000000
3.000000 1.250000 0.000000
3.000000 1.500000 0.000000
3.000000 1.750000 0.000000
2.250000 3.000000 0.000000
2.500000 3.000000 0.000000
2.750000 3.000000 0.000000
3.000000 2.250000 0.000000
3.000000 2.500000 0.000000
3.000000 2.750000 0.000000
2.250000 4.000000 0.000000
2.500000 4.000000 0.000000
2.750000 4.000000 0.000000
3.000000 3.250000 0.000000
3.000000 3.500000 0.000000
3.000000 3.750000 0.000000
2.250000 5.000000 0.000000
2.500000 5.000000 0.000000
2.750000 5.000000 0.000000
3.000000 4.250000 0.000000
3.000000 4.500000 0.000000
3.000000 4.750000 0.000000
2.250000 6.000000 0.000000
2.500000 6.000000 0.000000
2.750000 6.000000 0.000000
3.000000 5.250000 0.000000
3.000000 5.500000 0.000000
3.000000 5.750000 0.000000
3.250000 1.000000 0.000000
3.500000 1.000000 0.000000
3.750000 1.000000 0.000000
4.000000 0.250000 0.000000
4.000000 0.500000 0.000000
4.000000 0.750000 0.000000
3.250000 2.000000 0.000000
3.500000 2.000000 0.000000
3.750000 2.000000 0.000000
4.000000 1.250000 0.000000
4.000000 1.500000 0.000000
4.000000 1.750000 0.000000
3.250000 3.000000 0.000000
3.500000 3.000000 0.000000
3.750000 3.000000 0.000000
4.000000 2.250000 0.000000
4.000000 2.500000 0.000000
4.000000 2.750000 0.000000
3.250000 4.000000 0.000000
3.500000 4.000000 0.000000
3.750000 4.000000 0.000000
4.000000 3.250000 0.000000
4.000000 3.500000 0.000000
4.000000 3.750000 0.000000
3.250000 5.000000 0.000000
3.500000 5.000000 0.000000
3.750000 5.000000 0.000000
4.000000 4.250000 0.000000
4.000000 4.500000 0.000000
4.000000 4.750000 0.000000
3.250000 6.000000 0.000000
3.500000 6.000000 0.000000
3.750000 6.000000 0.000000
4.000000 5.250000 0.000000
4.000000 5.500000 0.000000
4.000000 5.750000 0.000000
4.250000 1.000000 0.000000
4.500000 1.000000 0.000000
4.750000 1.000000 0.000000
5.000000 0.250000 0.000000
5.000000 0.500000 0.000000
5.000000 0.750000 0.000000
4.250000 2.000000 0.000000
4.500000 2.000000 0.000000
4.750000 2.000000 0.000000
5.000000 1.250000 0.000000
5.000000 1.500000 0.000000
5.000000 1.750000 0.000000
4.250000 3.000000 0.000000
4.500000 3.000000 0.000000
4.750000 3.000000 0.000000
5.000000 2.250000 0.000000
5.000000 2.500000 0.000000
5.000000 2.750000 0.000000
4.250000 4.000000 0.000000
4.500000 4.000000 0.000000
4.750000 4.000000 0.000000
5.000000 3.250000 0.000000
5.000000 3.500000 0.000000
5.000000 3.750000 0.000000
4.250000 5.000000 0.000000
4.500000 5.000000 0.000000
4.750000 5.000000 0.000000
5.000000 4.250000 0.000000
5.000000 4.500000 0.000000
5.000000 4.750000 0.000000
4.250000 6.000000 0.000000
4.500000 6.000000 0.000000
4.750000 6.000000 0.000000
5.000000 5.250000 0.000000
5.000000 5.500000 0.000000
5.000000 5.750000 0.000000
5.250000 1.000000 0.000000
5.500000 1.000000 0.000000
5.750000 1.000000 0.000000
6.000000 0.250000 0.000000
6.000000 0.500000 0.000000
6.000000 0.750000 0.000000
5.250000 2.000000 0.000000
5.500000 2.000000 0.000000
5.750000 2.000000 0.000000
6.000000 1.250000 0.000000
6.000000 1.500000 0.000000
6.000000 1.750000 0.000000
5.250000 3.000000 0.000000
5.500000 3.000000 0.000000
5.750000 3.000000 0.000000
6.000000 2.250000 0.000000
6.000000 2.500000 0.000000
6.000000 2.750000 0.000000
5.250000 4.000000 0.000000
5.500000 4.000000 0.000000
5.750000 4.000000 0.000000
6.000000 3.250000 0.000000
6.000000 3.500000 0.000000
6.000000 3.750000 0.000000
5.250000 5.000000 0.000000
5.500000 5.000000 0.000000
5.750000 5.000000 0.000000
6.000000 4.250000 0.000000
6.000000 4.500000 0.000000
6.000000 4.750000 0.000000
5.250000 6.000000 0.000000
5.500000 6.000000 0.000000
5.750000 6.000000 0.000000
6.000000 5.250000 0.000000
6.000000 5.500000 0.000000
6.000000 5.750000 0.000000
0.354092 0.524248 0.000000
0.804015 0.668485 0.000000
0.176539 0.642203 0.000000
0.279348 0.239607 0.000000
0.653111 0.819895 0.000000
0.376524 0.781795 0.000000
0.167416 0.439302 0.000000
0.576925 0.611220 0.000000
0.521903 0.318733 0.000000
0.757669 0.416286 0.000000
0.132337 0.122402 0.000000
0.841425 0.847676 0.000000
0.160613 0.834800 0.000000
0.734095 0.185003 0.000000
0.871024 0.108751 0.000000
0.272476 1.537430 0.000000
0.660302 1.785301 0.000000
0.660045 1.212404 0.000000
0.162952 1.171693 0.000000
0.825570 1.361866 0.000000
0.825957 1.628272 0.000000
0.594871 1.497465 0.000000
0.400442 1.782533 0.000000
0.372389 1.253823 0.000000
0.165804 1.339408 0.000000
0.847252 1.832715 0.000000
0.847123 1.164854 0.000000
0.153820 1.761660 0.000000
0.272476 2.537430 0.000000
0.660302 2.785301 0.000000
0.660045 2.212404 0.000000
0.162952 2.171693 0.000000
0.825570 2.361866 0.000000
0.825957 2.628272 0.000000
0.594871 2.497465 0.000000
0.400442 2.782533 0.000000
0.372389 2.253823 0.000000
0.165804 2.339408 0.000000
0.847252 2.832715 0.000000
0.847123 2.164854 0.000000
0.153820 2.761660 0.000000
0.272476 3.537430 0.000000
0.660302 3.785301 0.000000
0.660045 3.212404 0.000000
0.162952 3.171693 0.000000
0.825570 3.361866 0.000000
0.825957 3.628272 0.000000
0.594871 3.497465 0.000000
0.400442 3.782533 0.000000
0.372389 3.253823 0.000000
0.165804 3.339408 0.000000
0.847252 3.832715 0.000000
0.847123 3.164854 0.000000
0.153820 3.761660 0.000000
0.272476 4.537430 0.000000
0.660302 4.785301 0.000000
0.660045 4.212404 0.000000
0.162952 4.171693 0.000000
0.825570 4.361866 0.000000
0.825957 4.628272 0.000000
0.594871 4.497465 0.000000
0.400442 4.782533 0.000000
0.372389 4.253823 0.000000
0.165804 4.339408 0.000000
0.847252 4.832715 0.000000
[...]
POINT_DATA 814
SCALARS CONDID_1 FLOAT
LOOKUP_TABLE default
 1 
 0 
 0 
 0 
 0 
 0 
 0 
 0 
 0 
 0 
 0 
 0 
 0 
 0 
 0 
 0 
 0 
 0 
 0 
 0 
 0 
 0 
 0 
 0 
 0 
 0 
 0 
 0 
 0 
 0 
 0 
 0 
 0 
 0 
 0 
 0 
 0 
 0 
 0 
 0 
 0 
 0 
 0 
 0 
 0 
 0 
 0 
 0 
 0 
 0 
 0 
 0 
 0 
 0 
 0 
 0 
 0 
 0 
 0 
 0 
 0 
 0 
 0 
 0 
 0 
 0 
 0 
 0 
 0 
 0 
 0 
 0 
 0 
 0 
 0 
 0 
 0 
 0 
 0 
 0 
 0 
 0 
 0 
 0 
 0 
 0 
 0 
 0 
 0 
 0 
 0 
 0 
 0 
 0 
 0 
 0 
 0 
 0 
 0 
 0 
 0 
 0 
 0 
 0 
 0 
 0 
 0 
 0 
 0 
 0 
 0 
 0 
 0 
 0 
 0 
 0 
 0 
 0 
 0 
 0 
 0 
 0 
 0 
 0 
 0 
 0 
 0 
 0 
 0 
 0 
 0 
 0 
 0 
 0 
 0 
 0 
 0 
 0 
 0 
 0 
 0 
 0 
 0 
 0 
 0 
 0 
 0 
 0 
 0 
 0 
 0 
 0 
 0 
 0 
 0 
 0 
 0 
 0 
 0 
 0 
 0 
 0 
 0 
 0 
 0 
 0 
 0 
 0 
 0 
 0 
 0 
 0 
 0 
 0 
 0 
 0 
 0 
 0 
 0 
 0 
 0 
 0 
 0 
 0 
 0 
 0 
 0 
 0 
 0 
 0 
 0 
 0 
 0 
 0 
 0 
 0 
 0 
 0 
 0 
 0 
 0 
 0 
 0 
 0 
 0 
 0 
 0 
 0 
 0 
 0 
 0 
 0 
 0 
 0 
 0 
 0 
 0 
 0 
 0 
 0 
 0 
 0 
 0 
 0 
 0 
 0 
 0 
 0 
 0 
 0 
 0 
 0 
 0 
 0 
 0 
 0 
 0 
 0 
 0 
 0 
 0 
 0 
 0 
 0 
 0 
 0 
 0 
 0 
 0 
 0 
 0 
 0 
 0 
 0 
 0 
 0 
 0 
 0 
 0 
 0 
 0 
 0 
 0 
 0 
 0 
 0 
 0 
 0 
 0 
 0 
 0 
 0 
 0 
 0 
 0 
 0 
 0 
 0 
 0 
 0 
 0 
 0 
 0 
 0 
 0 
 0 
 0 
 0 
 0 
 0 
 0 
 0 
 0 
 0 
 0 
 0 
 0 
 0 
 0 
 0 
 0 
 0 
 0 
 0 
 0 
 0 
 0 
 0 
 0 
 0 
 0 
 0 
 0 
 0 
 0 
 0 
 0 
 0 
 0 
 0 
 0 
 0 
 0 
 0 
 0 
 0 
 0 
 0 
 0 
 0 
 0 
 0 
 0 
 0 
 0 
 0 
 0 
 0 
 0 
 0 
 0 
 0 
 0 
 0 
 0 
 0 
 0 
 0 
 0 
 0 
 0 
 0 
 0 
 0 
 0 
 0 
 0 
 0 
 0 
 0 
 0 
 0 
 0 
 0 
 0 
 0 
 0 
 0 
 0 
 0 
 0 
 0 
 0 
 0 
 0 
 0 
 0 
 0 
 0 
 0 
 0 
 0 
 0 
 0 
 0 
 0 
 0 
 0 
 0 
 0 
 0 
 0 
 0 
 0 
 0 
 0 
 0 
 0 
 0 
 0 
 0 
 0 
 0 
 0 
 0 
 0 
 0 
 0 
 0 
 0 
 0 
 0 
 0 
 0 
 0 
 0 
 0 
 0 
 0 
 0 
 0 
 0 
 0 
 0 
 0 
 0 
 0 
 0 
 0 
 0 
 0 
 0 
 0 
 0 
 0 
 0 
 0 
 0 
 0 
 0 
 0 
 0 
 0 
 0 
 0 
 0 
 0 
 0 
 0 
 0 
 0 
 0 
 0 
 0 
 0 
 0 
 0 
 0 
 0 
 0 
 0 
 0 
 0 
 0 
 0 
 0 
 0 
 0 
 0 
 0 
 0 
 0 
 0 
 0 
 0 
 0 
 0 
 0 
 0 
 0 
 0 
 0 
 0 
 0 
 0 
 0 
 0 
 0 
 0 
 0 
 0 
 0 
 0 
 0 
 0 
 0 
 0 
 0 
 0 
 0 
 0 
 0 
 0 
 0 
 0 
 0 
 0 
 0 
 0 
 0 
 0 
 0 
 0 
 0 
 0 
 0 
 0 
 0 
 0 
 0 
 0 
 0 
 0 
 0 
 0 
 0 
 0 
 0 
 0 
 0 
 0 
 0 
 0 
 0 
 0 
 0 
 0 
 0 
 0 
 0 
 0 
 0 
 0 
 0 
 0 
 0 
 0 
 0 
 0 
 0 
 0 
 0 
 0 
 0 
 0 
 0 
 0 
 0 
 0 
 0 
 0 
 0 
 0 
 0 
 0 
 0 
 0 
 0 
 0 
 0 
 0 
 0 
 0 
 0 
 0 
 0 
 0 
 0 
 0 
 0 
 0 
 0 
 0 
 0 
 0 
 0 
 0 
 0 
 0 
 0 
 0 
 0 
 0 
 0 
 0 
 0 
 0 
 0 
 0 
 0 
 0 
 0 
 0 
 0 
 0 
 0 
 0 
 0 
 0 
 0 
 0 
 0 
 0 
 0 
 0 
 0 
 0 
 0 
 0 
 0 
 0 
 0 
 0 
 0 
 0 
 0 
 0 
 0 
 0 
 0 
 0 
 0 
 0 
 0 
 0 
 0 
 0 
 0 
 0 
 0 
 0 
 0 
 0 
 0 
 0 
 0 
 0 
 0 
 0 
 0 
 0 
 0 
 0 
 0 
 0 
 0 
 0 
 0 
 0 
 0 
 0 
 0 
 0 
 0 
 0 
 0 
 0 
 0 
 0 
 0 
 0 
 0 
 0 
 0 
 0 
 0 
 0 
 0 
 0 
 0 
 0 
 0 
 0 
 0 
 0 
 0 
 0 
 0 
 0 
 0 
 0 
 0 
 0 
 0 
 0 
 0 
 0 
 0 
 0 
 0 
 0 
 0 
 0 
 0 
 0 
 0 
 0 
 0 
 0 
 0 
 0 
 0 
 0 
 0 
 0 
 0 
 0 
 0 
 0 
 0 
 0 
 0 
 0 
 0 
 0 
 0 
 0 
 0 
 0 
 0 
 0 
 0 
 0 
 0 
 0 
 0 
 0 
 0 
 0 
 0 
 0 
 0 
 0 
 0 
 0 
 0 
 0 
 0 
 0 
 0 
 0 
 0 
 0 
 0 
 0 
 0 
 0 
 0 
 0 
 0 
 0 
 0 
 0 
 0 
 0 
 0 
 0 
 0 
 0 
 0 
 0 
 0 
 0 
 0 
 0 
 0 
 0 
 0 
 0 
 0 
 0 
 0 
 0 
 0 
 0 
 0 
 0 
 0 
 0 
 0 
 0 
 0 
 0 
 0 
 0 
 0 
 0 
 0 
 0 
 0 
 0 
 0 
 0 
 0 
 0 
 0 
 0 
 0 
 0 
 0 
 0 
 0 
 0 
 0 
SCALARS CONDID_2 FLOAT
LOOKUP_TABLE default
 1 
 0 
 0 
 0 
 0 
 0 
 0 
 1 
 0 
 1 
 0 
 1 
 0 
 1 
 0 
 1 
 0 
 1 
 0 
 0 
 0 
 0 
 0 
 0 
 0 
 0 
 0 
 0 
 0 
 0 
 0 
 0 
 0 
 0 
 0 
 0 
 0 
 0 
 0 
 0 
 0 
 0 
 0 
 0 
 0 
 0 
 0 
 0 
 0 
 0 
 0 
 0 
 0 
 0 
 0 
 0 
 0 
 0 
 0 
 0 
 0 
 0 
 0 
 0 
 0 
 0 
 0 
 0 
 0 
 0 
 1 
 1 
 1 
 0 
 0 
 0 
 0 
 0 
 0 
 1 
 1 
 1 
 0 
 0 
 0 
 0 
 0 
 0 
 1 
 1 
 1 
 0 
 0 
 0 
 0 
 0 
 0 
 1 
 1 
 1 
 0 
 0 
 0 
 0 
 0 
 0 
 1 
 1 
 1 
 0 
 0 
 0 
 0 
 0 
 0 
 1 
 1 
 1 
 0 
 0 
 0 
 0 
 0 
 0 
 0 
 0 
 0 
 0 
 0 
 0 
 0 
 0 
 0 
 0 
 0 
 0 
 0 
 0 
 0 
 0 
 0 
 0 
 0 
 0 
 0 
 0 
 0 
 0 
 0 
 0 
 0 
 0 
 0 
 0 
 0 
 0 
 0 
 0 
 0 
 0 
 0 
 0 
 0 
 0 
 0 
 0 
 0 
 0 
 0 
 0 
 0 
 0 
 0 
 0 
 0 
 0 
 0 
 0 
 0 
 0 
 0 
 0 
 0 
 0 
 0 
 0 
 0 
 0 
 0 
 0 
 0 
 0 
 0 
 0 
 0 
 0 
 0 
 0 
 0 
 0 
 0 
 0 
 0 
 0 
 0 
 0 
 0 
 0 
 0 
 0 
 0 
 0 
 0 
 0 
 0 
 0 
 0 
 0 
 0 
 0 
 0 
 0 
 0 
 0 
 0 
 0 
 0 
 0 
 0 
 0 
 0 
 0 
 0 
 0 
 0 
 0 
 0 
 0 
 0 
 0 
 0 
 0 
 0 
 0 
 0 
 0 
 0 
 0 
 0 
 0 
 0 
 0 
 0 
 0 
 0 
 0 
 0 
 0 
 0 
 0 
 0 
 0 
 0 
 0 
 0 
 0 
 0 
 0 
 0 
 0 
 0 
 0 
 0 
 0 
 0 
 0 
 0 
 0 
 0 
 0 
 0 
 0 
 0 
 0 
 0 
 0 
 0 
 0 
 0 
 0 
 0 
 0 
 0 
 0 
 0 
 0 
 0 
 0 
 0 
 0 
 0 
 0 
 0 
 0 
 0 
 0 
 0 
 0 
 0 
 0 
 0 
 0 
 0 
 0 
 0 
 0 
 0 
 0 
 0 
 0 
 0 
 0 
 0 
 0 
 0 
 0 
 0 
 0 
 0 
 0 
 0 
 0 
 0 
 0 
 0 
 0 
 0 
 0 
 0 
 0 
 0 
 0 
 0 
 0 
 0 
 0 
 0 
 0 
 0 
 0 
 0 
 0 
 0 
 0 
 0 
 0 
 0 
 0 
 0 
 0 
 0 
 0 
 0 
 0 
 0 
 0 
 0 
 0 
 0 
 0 
 0 
 0 
 0 
 0 
 0 
 0 
 0 
 0 
 0 
 0 
 0 
 0 
 0 
 0 
 0 
 0 
 0 
 0 
 0 
 0 
 0 
 0 
 0 
 0 
 0 
 0 
 0 
 0 
 0 
 0 
 0 
 0 
 0 
 0 
 0 
 0 
 0 
 0 
 0 
 0 
 0 
 0 
 0 
 0 
 0 
 0 
 0 
 0 
 0 
 0 
 0 
 0 
 0 
 0 
 0 
 0 
 0 
 0 
 0 
 0 
 0 
 0 
 0 
 0 
 0 
 0 
 0 
 0 
 0 
 0 
 0 
 0 
 0 
 0 
 0 
 0 
 0 
 0 
 0 
 0 
 0 
 0 
 0 
 0 
 0 
 0 
 0 
 0 
 0 
 0 
 0 
 0 
 0 
 0 
 0 
 0 
 0 
 0 
 0 
 0 
 0 
 0 
 0 
 0 
 0 
 0 
 0 
 0 
 0 
 0 
 0 
 0 
 0 
 0 
 0 
 0 
 0 
 0 
 0 
 0 
 0 
 0 
 0 
 0 
 0 
 0 
 0 
 0 
 0 
 0 
 0 
 0 
 0 
 0 
 0 
 0 
 0 
 0 
 0 
 0 
 0 
 0 
 0 
 0 
 0 
 0 
 0 
 0 
 0 
 0 
 0 
 0 
 0 
 0 
 0 
 0 
 0 
 0 
 0 
 0 
 0 
 0 
 0 
 0 
 0 
 0 
 0 
 0 
 0 
 0 
 0 
 0 
 0 
 0 
 0 
 0 
 0 
 0 
 0 
 0 
 0 
 0 
 0 
 0 
 0 
 0 
 0 
 0 
 0 
 0 
 0 
 0 
 0 
 0 
 0 
 0 
 0 
 0 
 0 
 0 
 0 
 0 
 0 
 0 
 0 
 0 
 0 
 0 
 0 
 0 
 0 
 0 
 0 
 0 
 0 
 0 
 0 
 0 
 0 
 0 
 0 
 0 
 0 
 0 
 0 
 0 
 0 
 0 
 0 
 0 
 0 
 0 
 0 
 0 
 0 
 0 
 0 
 0 
 0 
 0 
 0 
 0 
 0 
 0 
 0 
 0 
 0 
 0 
 0 
 0 
 0 
 0 
 0 
 0 
 0 
 0 
 0 
 0 
 0 
 0 
 0 
 0 
 0 
 0 
 0 
 0 
 0 
 0 
 0 
 0 
 0 
 0 
 0 
 0 
 0 
 0 
 0 
 0 
 0 
 0 
 0 
 0 
 0 
 0 
 0 
 0 
 0 
 0 
 0 
 0 
 0 
 0 
 0 
 0 
 0 
 0 
 0 
 0 
 0 
 0 
 0 
 0 
 0 
 0 
 0 
 0 
 0 
 0 
 0 
 0 
 0 
 0 
 0 
 0 
 0 
 0 
 0 
 0 
 0 
 0 
 0 
 0 
 0 
 0 
 0 
 0 
 0 
 0 
 0 
 0 
 0 
 0 
 0 
 0 
 0 
 0 
 0 
 0 
 0 
 0 
 0 
 0 
 0 
 0 
 0 
 0 
 0 
 0 
 0 
 0 
 0 
 0 
 0 
 0 
 0 
 0 
 0 
 0 
 0 
 0 
 0 
 0 
 0 
 0 
 0 
 0 
 0 
 0 
 0 
 0 
 0 
 0 
 0 
 0 
 0 
 0 
 0 
 0 
 0 
 0 
 0 
 0 
 0 
 0 
 0 
 0 
 0 
 0 
 0 
 0 
 0 
 0 
 0 
 0 
 0 
 0 
 0 
 0 
 0 
 0 
 0 
 0 
 0 
 0 
 0 
 0 
 0 
 0 
 0 
 0 
 0 
 0 
 0 
 0 
 0 
 0 
 0 
 0 
 0 
 0 
 0 
 0 
 0 
 0 
 0 
 0 
 0 
 0 
 0 
 0 
 0 
 0 
 0 
 0 
 0 
 0 
 0 
 0 
 0 
 0 
 0 
 0 
 0 
 0 
SCALARS CONDID_3 FLOAT
LOOKUP_TABLE default
 0 
 0 
 0 
 0 
 0 
 0 
 1 
 0 
 0 
 0 
 0 
 0 
 0 
 0 
 0 
 0 
 0 
 0 
 0 
 0 
 0 
 0 
 0 
 0 
 0 
 0 
 0 
 0 
 0 
 0 
 0 
 0 
 0 
 0 
 0 
 0 
 0 
 0 
 0 
 0 
 0 
 0 
 0 
 1 
 1 
 1 
 1 
 1 
 1 
 0 
 0 
 0 
 0 
 0 
 0 
 0 
 0 
 0 
 0 
 0 
 0 
 0 
 0 
 0 
 0 
 0 
 0 
 0 
 0 
 0 
 0 
 0 
 0 
 0 
 0 
 0 
 0 
 0 
 0 
 0 
 0 
 0 
 0 
 0 
 0 
 0 
 0 
 0 
 0 
 0 
 0 
 0 
 0 
 0 
 0 
 0 
 0 
 0 
 0 
 0 
 0 
 0 
 0 
 0 
 0 
 0 
 0 
 0 
 0 
 0 
 0 
 0 
 0 
 0 
 0 
 0 
 0 
 0 
 0 
 0 
 0 
 0 
 0 
 0 
 0 
 0 
 0 
 0 
 0 
 0 
 0 
 0 
 0 
 0 
 0 
 0 
 0 
 0 
 0 
 0 
 0 
 0 
 0 
 0 
 0 
 0 
 0 
 0 
 0 
 0 
 0 
 0 
 0 
 0 
 0 
 0 
 0 
 0 
 0 
 0 
 0 
 0 
 0 
 0 
 0 
 0 
 0 
 0 
 0 
 0 
 0 
 0 
 0 
 0 
 0 
 0 
 0 
 0 
 0 
 0 
 0 
 0 
 0 
 0 
 0 
 0 
 0 
 0 
 0 
 0 
 0 
 0 
 0 
 0 
 0 
 0 
 0 
 0 
 0 
 0 
 0 
 0 
 0 
 0 
 0 
 0 
 0 
 0 
 0 
 0 
 0 
 0 
 0 
 0 
 0 
 0 
 0 
 0 
 0 
 0 
 0 
 0 
 0 
 0 
 0 
 0 
 0 
 0 
 0 
 0 
 0 
 0 
 0 
 0 
 0 
 0 
 0 
 0 
 0 
 0 
 0 
 0 
 0 
 0 
 0 
 0 
 0 
 0 
 0 
 0 
 0 
 0 
 0 
 0 
 0 
 0 
 0 
 0 
 0 
 0 
 0 
 0 
 0 
 0 
 0 
 0 
 0 
 0 
 1 
 1 
 1 
 0 
 0 
 0 
 1 
 1 
 1 
 0 
 0 
 0 
 1 
 1 
 1 
 0 
 0 
 0 
 1 
 1 
 1 
 0 
 0 
 0 
 1 
 1 
 1 
 0 
 0 
 0 
 1 
 1 
 1 
 0 
 0 
 0 
 0 
 0 
 0 
 0 
 0 
 0 
 0 
 0 
 0 
 0 
 0 
 0 
 0 
 0 
 0 
 0 
 0 
 0 
 0 
 0 
 0 
 0 
 0 
 0 
 0 
 0 
 0 
 0 
 0 
 0 
 0 
 0 
 0 
 0 
 0 
 0 
 0 
 0 
 0 
 0 
 0 
 0 
 0 
 0 
 0 
 0 
 0 
 0 
 0 
 0 
 0 
 0 
 0 
 0 
 0 
 0 
 0 
 0 
 0 
 0 
 0 
 0 
 0 
 0 
 0 
 0 
 0 
 0 
 0 
 0 
 0 
 0 
 0 
 0 
 0 
 0 
 0 
 0 
 0 
 0 
 0 
 0 
 0 
 0 
 0 
 0 
 0 
 0 
 0 
 0 
 0 
 0 
 0 
 0 
 0 
 0 
 0 
 0 
 0 
 0 
 0 
 0 
 0 
 0 
 0 
 0 
 0 
 0 
 0 
 0 
 0 
 0 
 0 
 0 
 0 
 0 
 0 
 0 
 0 
 0 
 0 
 0 
 0 
 0 
 0 
 0 
 0 
 0 
 0 
 0 
 0 
 0 
 0 
 0 
 0 
 0 
 0 
 0 
 0 
 0 
 0 
 0 
 0 
 0 
 0 
 0 
 0 
 0 
 0 
 0 
 0 
 0 
 0 
 0 
 0 
 0 
 0 
 0 
 0 
 0 
 0 
 0 
 0 
 0 
 0 
 0 
 0 
 0 
 0 
 0 
 0 
 0 
 0 
 0 
 0 
 0 
 0 
 0 
 0 
 0 
 0 
 0 
 0 
 0 
 0 
 0 
 0 
 0 
 0 
 0 
 0 
 0 
 0 
 0 
 0 
 0 
 0 
 0 
 0 
 0 
 0 
 0 
 0 
 0 
 0 
 0 
 0 
 0 
 0 
 0 
 0 
 0 
 0 
 0 
 0 
 0 
 0 
 0 
 0 
 0 
 0 
 0 
 0 
 0 
 0 
 0 
 0 
 0 
 0 
 0 
 0 
 0 
 0 
 0 
 0 
 0 
 0 
 0 
 0 
 0 
 0 
 0 
 0 
 0 
 0 
 0 
 0 
 0 
 0 
 0 
 0 
 0 
 0 
 0 
 0 
 0 
 0 
 0 
 0 
 0 
 0 
 0 
 0 
 0 
 0 
 0 
 0 
 0 
 0 
 0 
 0 
 0 
 0 
 0 
 0 
 0 
 0 
 0 
 0 
 0 
 0 
 0 
 0 
 0 
 0 
 0 
 0 
 0 
 0 
 0 
 0 
 0 
 0 
 0 
 0 
 0 
 0 
 0 
 0 
 0 
 0 
 0 
 0 
 0 
 0 
 0 
 0 
 0 
 0 
 0 
 0 
 0 
 0 
 0 
 0 
 0 
 0 
 0 
 0 
 0 
 0 
 0 
 0 
 0 
 0 
 0 
 0 
 0 
 0 
 0 
 0 
 0 
 0 
 0 
 0 
 0 
 0 
 0 
 0 
 0 
 0 
 0 
 0 
 0 
 0 
 0 
 0 
 0 
 0 
 0 
 0 
 0 
 0 
 0 
 0 
 0 
 0 
 0 
 0 
 0 
 0 
 0 
 0 
 0 
 0 
 0 
 0 
 0 
 0 
 0 
 0 
 0 
 0 
 0 
 0 
 0 
 0 
 0 
 0 
 0 
 0 
 0 
 0 
 0 
 0 
 0 
 0 
 0 
 0 
 0 
 0 
 0 
 0 
 0 
 0 
 0 
 0 
 0 
 0 
 0 
 0 
 0 
 0 
 0 
 0 
 0 
 0 
 0 
 0 
 0 
 0 
 0 
 0 
 0 
 0 
 0 
 0 
 0 
 0 
 0 
 0 
 0 
 0 
 0 
 0 
 0 
 0 
 0 
 0 
 0 
 0 
 0 
 0 
 0 
 0 
 0 
 0 
 0 
 0 
 0 
 0 
 0 
 0 
 0 
 0 
 0 
 0 
 0 
 0 
 0 
 0 
 0 
 0 
 0 
 0 
 0 
 0 
 0 
 0 
 0 
 0 
 0 
 0 
 0 
 0 
 0 
 0 
 0 
 0 
 0 
 0 
 0 
 0 
 0 
 0 
 0 
 0 
 0 
 0 
 0 
 0 
 0 
 0 
 0 
 0 
 0 
 0 
 0 
 0 
 0 
 0 
 0 
 0 
 0 
 0 
 0 
 0 
 0 
 0 
 0 
 0 
 0 
 0 
 0 
 0 
 0 
 0 
 0 
 0 
 0 
VECTORS displacement FLOAT
 0  0  0 
 -2.283381e-05  -7.252203e-05  0 
 -3.340674e-03  -1.204902e-03  0 
 -3.331670e-03  -3.055497e-03  0 
 -5.214518e-03  -3.784669e-03  0 
 -5.244230e-03  -6.567348e-03  0 
 -4.231134e-02  -7.603971e-02  0 
 0  0  0 
 -4.841677e-04  -8.212216e-05  0 
 0  0  0 
 -2.021600e-04  -1.473281e-04  0 
 0  0  0 
 1.016012e-05  -1.342161e-04  0 
 0  0  0 
 2.938941e-04  -1.642320e-04  0 
 0  0  0 
 5.846183e-04  -5.658355e-04  0 
 0  0  0 
 2.213733e-03  -8.959973e-04  0 
 -1.131937e-03  -9.264108e-04  0 
 -5.236742e-04  -8.147441e-04  0 
 6.961759e-05  -8.653736e-04  0 
 8.439594e-04  -1.157310e-03  0 
 1.430186e-03  -1.770029e-03  0 
 2.205413e-03  -2.097614e-03  0 
 -1.835016e-03  -2.794104e-03  0 
 -9.307513e-04  -2.223237e-03  0 
 1.398429e-04  -2.133117e-03  0 
 1.281661e-03  -2.302138e-03  0 
 2.036774e-03  -2.321836e-03  0 
 4.702526e-03  -2.456606e-03  0 
 -2.311574e-03  -3.699456e-03  0 
 -1.122001e-03  -3.847542e-03  0 
 1.811162e-04  -3.915346e-03  0 
 1.553017e-03  -4.107370e-03  0 
 2.497182e-03  -4.676482e-03  0 
 4.720617e-03  -4.897222e-03  0 
 -2.655140e-03  -6.345234e-03  0 
 -1.215196e-03  -5.832166e-03  0 
 1.956240e-04  -5.580450e-03  0 
 1.705685e-03  -5.634092e-03  0 
 2.749524e-03  -5.687262e-03  0 
 4.312163e-02  -5.905077e-03  0 
 -2.870075e-03  -7.822974e-03  0 
 -1.198387e-03  -7.870799e-03  0 
 8.883878e-05  -7.428334e-03  0 
 1.858644e-03  -7.448905e-03  0 
 2.772229e-03  -4.627399e-02  0 
 4.319372e-02  -4.627641e-02  0 
 -2.656398e-05  -5.488283e-05  0 
 -2.887258e-05  -8.079565e-05  0 
 -2.311820e-05  -7.715316e-05  0 
 -1.012359e-03  -1.172705e-03  0 
 -1.755487e-03  -1.724789e-03  0 
 -2.429621e-03  -1.766866e-03  0 
 -3.340155e-03  -1.662222e-03  0 
 -3.336817e-03  -2.121531e-03  0 
 -3.333969e-03  -2.586598e-03  0 
 -3.620155e-03  -3.676311e-03  0 
 -3.940226e-03  -4.043098e-03  0 
 -4.413783e-03  -4.130444e-03  0 
 -5.216441e-03  -4.470488e-03  0 
 -5.219213e-03  -5.156307e-03  0 
 -5.229111e-03  -5.853810e-03  0 
 -1.677239e-02  -1.891692e-02  0 
 -2.670286e-02  -3.043067e-02  0 
 -3.622858e-02  -4.875419e-02  0 
 -3.712475e-05  4.711356e-06  0 
 -1.070133e-04  -2.371578e-05  0 
 -2.330604e-04  -3.695004e-05  0 
 0  0  0 
 0  0  0 
 0  0  0 
 -3.006211e-05  -6.299339e-05  0 
 -5.543957e-05  -4.330590e-05  0 
 -1.388013e-04  -1.677661e-05  0 
 -3.800062e-05  -3.485387e-05  0 
 -7.279950e-05  -5.087566e-05  0 
 -1.197271e-04  -8.725990e-05  0 
 0  0  0 
 0  0  0 
 0  0  0 
 -6.199158e-04  -1.870691e-04  0 
 -5.983964e-04  -1.860411e-04  0 
 -4.467864e-04  -1.516866e-04  0 
 1.020830e-05  -9.226894e-06  0 
 2.009885e-05  -3.173524e-05  0 
 2.185891e-05  -6.628223e-05  0 
 0  0  0 
 0  0  0 
 0  0  0 
 -6.703026e-05  -1.177105e-04  0 
 -2.236524e-05  -9.293323e-05  0 
 2.422251e-06  -9.288300e-05  0 
 -2.104959e-07  -2.055269e-05  0 
 2.668337e-05  -7.597559e-05  0 
 1.086176e-04  -1.165763e-04  0 
 0  0  0 
 0  0  0 
 0  0  0 
 1.456620e-04  -1.734783e-04  0 
 2.806281e-04  -1.899432e-04  0 
 3.823090e-04  -1.973983e-04  0 
 1.023852e-04  -9.899545e-05  0 
 2.059591e-04  -1.616199e-04  0 
 3.448926e-04  -2.904096e-04  0 
 0  0  0 
 0  0  0 
 0  0  0 
 8.016492e-05  -1.522438e-04  0 
 8.244576e-05  -2.345999e-04  0 
 1.897870e-04  -3.739507e-04  0 
 6.301537e-04  -7.613464e-04  0 
 1.163180e-03  -1.125776e-03  0 
 1.638679e-03  -1.249717e-03  0 
 0  0  0 
 0  0  0 
 0  0  0 
 1.254707e-03  -7.685550e-04  0 
 1.621080e-03  -8.727950e-04  0 
 1.924289e-03  -8.965637e-04  0 
 -6.659396e-04  -2.952043e-04  0 
 -8.102457e-04  -4.276083e-04  0 
 -9.637405e-04  -6.755112e-04  0 
 -2.887081e-03  -1.203197e-03  0 
 -2.421347e-03  -1.176136e-03  0 
 -1.895949e-03  -1.092187e-03  0 
 -2.731066e-04  -2.938541e-04  0 
 -3.336973e-04  -4.633406e-04  0 
 -4.075976e-04  -5.987485e-04  0 
 -7.277116e-04  -8.330020e-04  0 
 -5.249564e-04  -7.229345e-04  0 
 -4.712416e-04  -7.158943e-04  0 
 -4.734657e-06  -3.327262e-04  0 
 -7.275998e-06  -5.010782e-04  0 
 2.070988e-05  -6.658275e-04  0 
 -4.959756e-04  -9.220822e-04  0 
 -3.121539e-04  -9.348397e-04  0 
 -1.010730e-04  -9.230527e-04  0 
 4.838951e-04  -3.343515e-04  0 
 5.915816e-04  -5.099020e-04  0 
 6.895266e-04  -7.489287e-04  0 
 1.424353e-04  -8.167314e-04  0 
 2.592640e-04  -8.295220e-04  0 
 4.619419e-04  -9.463967e-04  0 
 8.397288e-04  -1.114979e-03  0 
 1.009065e-03  -1.493139e-03  0 
 1.176624e-03  -1.714519e-03  0 
 1.242675e-03  -1.325131e-03  0 
 1.479612e-03  -1.518874e-03  0 
 1.573659e-03  -1.660718e-03  0 
 2.212938e-03  -1.190453e-03  0 
 2.209537e-03  -1.487826e-03  0 
 2.206090e-03  -1.790835e-03  0 
 1.363655e-03  -1.970125e-03  0 
 1.597142e-03  -2.072866e-03  0 
 1.894112e-03  -2.098389e-03  0 
 -1.339165e-03  -1.592361e-03  0 
 -1.483245e-03  -2.116389e-03  0 
 -1.627282e-03  -2.523502e-03  0 
 -2.862946e-03  -3.052210e-03  0 
 -2.401431e-03  -3.031076e-03  0 
 -1.998738e-03  -2.951472e-03  0 
 -6.859687e-04  -1.152509e-03  0 
 -7.703334e-04  -1.422014e-03  0 
 -8.425548e-04  -1.744423e-03  0 
 -1.839999e-03  -2.687136e-03  0 
 -1.644322e-03  -2.542136e-03  0 
 -1.351194e-03  -2.420119e-03  0 
 1.229087e-04  -1.170185e-03  0 
 1.605338e-04  -1.444074e-03  0 
 1.687191e-04  -1.738749e-03  0 
 -5.448606e-04  -2.017262e-03  0 
 -2.866682e-04  -1.942771e-03  0 
 -6.204268e-05  -1.995246e-03  0 
 9.568555e-04  -1.542243e-03  0 
 1.071559e-03  -1.867899e-03  0 
 1.153817e-03  -2.070205e-03  0 
 4.476687e-04  -2.279769e-03  0 
 7.841785e-04  -2.358962e-03  0 
 1.093054e-03  -2.365865e-03  0 
 1.614556e-03  -1.811733e-03  0 
 1.770173e-03  -1.856201e-03  0 
 1.882718e-03  -2.054614e-03  0 
 1.301106e-03  -2.238736e-03  0 
 1.440265e-03  -2.226714e-03  0 
 1.657511e-03  -2.253825e-03  0 
 2.674570e-03  -2.828964e-03  0 
 3.129607e-03  -3.091179e-03  0 
 3.737584e-03  -3.053103e-03  0 
 2.849543e-03  -2.396165e-03  0 
 3.497342e-03  -2.442787e-03  0 
 4.100933e-03  -2.454466e-03  0 
 -1.998187e-03  -2.917936e-03  0 
 -2.132613e-03  -3.108904e-03  0 
 -2.213364e-03  -3.377046e-03  0 
 -4.531462e-03  -3.784358e-03  0 
 -3.843745e-03  -3.778931e-03  0 
 -3.131175e-03  -3.752582e-03  0 
 -1.002412e-03  -2.731868e-03  0 
 -1.046031e-03  -3.096064e-03  0 
 -1.073176e-03  -3.426750e-03  0 
 -1.921043e-03  -3.661491e-03  0 
 -1.626051e-03  -3.662003e-03  0 
 -1.361191e-03  -3.716152e-03  0 
 9.720030e-05  -2.643524e-03  0 
 1.028178e-04  -3.067734e-03  0 
 1.229834e-04  -3.457328e-03  0 
 -7.979946e-04  -3.976021e-03  0 
 -4.513284e-04  -4.013758e-03  0 
 -1.037781e-04  -4.000117e-03  0 
 1.396135e-03  -2.716822e-03  0 
 1.468231e-03  -3.073812e-03  0 
 1.514860e-03  -3.504647e-03  0 
 4.574478e-04  -3.809229e-03  0 
 7.813271e-04  -3.798599e-03  0 
 1.135175e-03  -3.876340e-03  0 
 2.188575e-03  -3.021967e-03  0 
 2.286759e-03  -3.652017e-03  0 
 2.390562e-03  -4.173783e-03  0 
 1.914522e-03  -4.345008e-03  0 
 2.199105e-03  -4.455952e-03  0 
 2.425884e-03  -4.544799e-03  0 
 4.704572e-03  -3.058381e-03  0 
 4.707212e-03  -3.662832e-03  0 
 4.713205e-03  -4.278404e-03  0 
 2.937267e-03  -4.763903e-03  0 
 3.493077e-03  -4.851367e-03  0 
 4.101059e-03  -4.882593e-03  0 
 -2.408704e-03  -4.450944e-03  0 
 -2.476114e-03  -5.152964e-03  0 
 -2.548343e-03  -5.796383e-03  0 
 -4.530551e-03  -6.542521e-03  0 
 -3.833420e-03  -6.515838e-03  0 
 -3.176487e-03  -6.459039e-03  0 
 -1.169519e-03  -4.354270e-03  0 
 -1.192090e-03  -4.777219e-03  0 
 -1.209940e-03  -5.226162e-03  0 
 -2.381972e-03  -6.259357e-03  0 
 -2.047428e-03  -6.158923e-03  0 
 -1.648573e-03  -6.050855e-03  0 
 2.393377e-04  -4.366939e-03  0 
 2.544488e-04  -4.769498e-03  0 
 2.419181e-04  -5.161706e-03  0 
 -8.156707e-04  -5.613483e-03  0 
 -4.554869e-04  -5.534606e-03  0 
 -1.036316e-04  -5.529549e-03  0 
 1.593797e-03  -4.648027e-03  0 
 1.636369e-03  -5.004825e-03  0 
 1.668403e-03  -5.314375e-03  0 
 5.645639e-04  -5.635295e-03  0 
 9.659355e-04  -5.655056e-03  0 
 1.363830e-03  -5.661409e-03  0 
 2.627167e-03  -4.783945e-03  0 
 2.701229e-03  -5.013499e-03  0 
 2.738371e-03  -5.307788e-03  0 
 1.935484e-03  -5.588682e-03  0 
 2.187767e-03  -5.573256e-03  0 
 2.455929e-03  -5.604116e-03  0 
 1.250077e-02  -1.153618e-02  0 
 1.988397e-02  -1.413761e-02  0 
 2.973984e-02  -1.322875e-02  0 
 1.285555e-02  -5.776598e-03  0 
 2.296118e-02  -5.837044e-03  0 
 3.305029e-02  -5.874764e-03  0 
 -2.732445e-03  -6.647695e-03  0 
 -2.809156e-03  -7.000514e-03  0 
 -2.849186e-03  -7.399869e-03  0 
 -2.255774e-02  -6.587001e-02  0 
 -1.298871e-02  -5.043700e-02  0 
 -9.603954e-03  -3.315684e-02  0 
 -1.213457e-03  -6.475832e-03  0 
 -1.221580e-03  -6.961146e-03  0 
 -1.214260e-03  -7.407456e-03  0 
 -2.462514e-03  -7.800897e-03  0 
 -2.060982e-03  -7.797502e-03  0 
 -1.643898e-03  -7.830733e-03  0 
 1.533118e-04  -6.064589e-03  0 
 1.227333e-04  -6.516006e-03  0 
 1.019404e-04  -6.965791e-03  0 
 1.825900e-04  -2.222777e-02  0 
 -5.409151e-04  -2.553054e-02  0 
 -1.057188e-03  -2.110683e-02  0 
 1.769004e-03  -6.087562e-03  0 
 1.804537e-03  -6.524361e-03  0 
 1.832439e-03  -6.974820e-03  0 
 5.353616e-04  -7.404517e-03  0 
 9.693115e-04  -7.388287e-03  0 
 1.401672e-03  -7.405233e-03  0 
 2.749268e-03  -1.587779e-02  0 
 2.763695e-03  -2.602802e-02  0 
 2.769462e-03  -3.615094e-02  0 
 6.124565e-03  -2.648475e-02  0 
 6.063157e-03  -3.815246e-02  0 
 5.083141e-03  -4.377580e-02  0 
 4.314582e-02  -1.597777e-02  0 
 4.317025e-02  -2.606063e-02  0 
 4.318601e-02  -3.616349e-02  0 
 1.288064e-02  -4.627344e-02  0 
 2.298645e-02  -4.626899e-02  0 
 3.308816e-02  -4.627006e-02  0 
 -4.181377e-05  -7.673161e-05  0 
 -1.063720e-04  -1.030722e-04  0 
 -2.395835e-05  -3.931686e-05  0 
 -1.602254e-05  -5.686820e-05  0 
 -1.567070e-04  -1.110897e-04  0 
 -7.044603e-05  -6.397109e-05  0 
 -1.794971e-05  -4.039577e-05  0 
 -7.787664e-05  -1.088337e-04  0 
 -2.758076e-05  -8.417755e-05  0 
 -4.091750e-05  -8.462970e-05  0 
 -9.954859e-06  -2.476246e-05  0 
 -2.403724e-04  -1.385559e-04  0 
 -2.073503e-05  -1.474583e-05  0 
 -2.711044e-05  -8.316536e-05  0 
 -2.366806e-05  -7.425113e-05  0 
 -1.337754e-04  1.199479e-05  0 