# vtk DataFile Version 3.1
this is an vtk file created by FEMAC
ASCII
DATASET UNSTRUCTURED_GRID
POINTS 31 FLOAT
4.000000 0.000000 0.000000
4.000000 1.000000 0.000000
3.500000 0.000000 0.000000
3.750000 0.000000 0.000000
4.250000 0.000000 0.000000
4.500000 0.000000 0.000000
4.750000 0.000000 0.000000
4.000000 0.250000 0.000000
4.000000 0.500000 0.000000
4.000000 0.750000 0.000000
4.250000 1.000000 0.000000
4.500000 1.000000 0.000000
3.462570 0.272476 0.000000
3.787596 0.660045 0.000000
3.828307 0.162952 0.000000
3.638134 0.825570 0.000000
3.502535 0.594871 0.000000
3.746177 0.372389 0.000000
3.660592 0.165804 0.000000
3.835146 0.847123 0.000000
4.462570 0.272476 0.000000
4.214699 0.660302 0.000000
4.828307 0.162952 0.000000
4.638134 0.825570 0.000000
4.371728 0.825957 0.000000
4.502535 0.594871 0.000000
4.217467 0.400442 0.000000
4.746177 0.372389 0.000000
4.660592 0.165804 0.000000
4.167285 0.847252 0.000000
4.238340 0.153820 0.000000
CELLS 43 172 
3 13  8  9
3 14  3  0
3 7 14  0
3 16 13 15
3 13 17  8
3 17 16 12
3 13 16 17
3 17  7  8
3 14  7 17
3 14 18  3
3 9 19 13
3 19  9  1
3 18 17 12
3 14 17 18
3 15 13 19
3 18  2  3
3 2 18 12
3 8 21  9
3 11 24 23
3 26 21  8
3 25 26 20
3 25 21 26
3 27 25 20
3 10 24 11
3 7 26  8
3 25 24 21
3 23 24 25
3 22 28  6
3 9 29  1
3 29 10  1
3 29  9 21
3 28 27 20
3 22 27 28
3 29 24 10
3 21 24 29
3 28  5  6
3 5 28 20
3 4 30  0
3 30  7  0
3 5 30  4
3 26 30 20
3 30 26  7
3 5 20 30
CELL_TYPES 43
5 5 5 5 5 5 5 5 5 5 5 5 5 5 5 5 5 5 5 5 5 5 5 5 5 5 5 5 5 5 5 5 5 5 5 5 5 5 5 5 5 5 5 
POINT_DATA 31
VECTORS displacement_ITER1 FLOAT
 -2.095247e-01  -2.240652e-01  0 
 -1.070709e-01  -2.239911e-01  0 
 -1.712844e-01  -1.968410e-01  0 
 -1.926568e-01  -2.107664e-01  0 
 -2.095462e-01  -2.496698e-01  0 
 -2.095662e-01  -2.752834e-01  0 
 -2.095835e-01  -3.009126e-01  0 
 -1.839225e-01  -2.240384e-01  0 
 -1.583108e-01  -2.240225e-01  0 
 -1.326918e-01  -2.240081e-01  0 
 -1.070829e-01  -2.496195e-01  0 
 -1.070985e-01  -2.752420e-01  0 
 -1.646455e-01  -1.759546e-01  0 
 -1.379163e-01  -1.985389e-01  0 
 -1.871712e-01  -2.070408e-01  0 
 -1.121797e-01  -1.736437e-01  0 
 -1.381195e-01  -1.645925e-01  0 
 -1.666768e-01  -1.957762e-01  0 
 -1.785420e-01  -1.934282e-01  0 
 -1.184452e-01  -2.012557e-01  0 
 -1.816404e-01  -2.714346e-01  0 
 -1.418920e-01  -2.460182e-01  0 
 -1.928795e-01  -3.089316e-01  0 
 -1.249718e-01  -2.894018e-01  0 
 -1.249233e-01  -2.621055e-01  0 
 -1.486031e-01  -2.755181e-01  0 
 -1.685190e-01  -2.463106e-01  0 
 -1.714103e-01  -3.005017e-01  0 
 -1.925806e-01  -2.917364e-01  0 
 -1.227330e-01  -2.411491e-01  0 
 -1.937892e-01  -2.484615e-01  0 
VECTORS displacement_ITER2 FLOAT
 -1.142597e-01  -1.223630e-01  0 
 -5.935122e-02  -1.222681e-01  0 
 -8.887571e-02  -1.159471e-01  0 
 -1.023117e-01  -1.191080e-01  0 
 -1.142765e-01  -1.360725e-01  0 
 -1.142927e-01  -1.497888e-01  0 
 -1.143087e-01  -1.635171e-01  0 
 -1.005514e-01  -1.223420e-01  0 
 -8.683226e-02  -1.223276e-01  0 
 -7.309934e-02  -1.223040e-01  0 
 -5.937014e-02  -1.360299e-01  0 
 -5.939113e-02  -1.497808e-01  0 
 -8.762456e-02  -1.011000e-01  0 
 -7.355965e-02  -1.111106e-01  0 
 -1.015219e-01  -1.147985e-01  0 
 -5.425279e-02  -9.659969e-02  0 
 -7.255422e-02  -9.177195e-02  0 
 -9.058223e-02  -1.095244e-01  0 
 -9.597762e-02  -1.097754e-01  0 
 -6.283126e-02  -1.097831e-01  0 
 -9.933432e-02  -1.477246e-01  0 
 -7.803832e-02  -1.341084e-01  0 
 -1.053590e-01  -1.678097e-01  0 
 -6.896411e-02  -1.573582e-01  0 
 -6.894366e-02  -1.427329e-01  0 
 -8.163411e-02  -1.499124e-01  0 
 -9.230335e-02  -1.342668e-01  0 
 -9.385609e-02  -1.632926e-01  0 
 -1.051967e-01  -1.585986e-01  0 
 -6.776471e-02  -1.314910e-01  0 
 -1.058387e-01  -1.354219e-01  0 
VECTORS displacement_ITER3 FLOAT
 -5.960499e-02  -4.011507e-02  0 
 -4.340219e-02  -3.996665e-02  0 
 -4.515528e-02  -5.431206e-02  0 
 -5.150623e-02  -4.579383e-02  0 
 -5.961665e-02  -4.412806e-02  0 
 -5.962684e-02  -4.814663e-02  0 
 -5.963505e-02  -5.216789e-02  0 
 -5.559344e-02  -4.009890e-02  0 
 -5.156290e-02  -4.007619e-02  0 
 -4.750298e-02  -4.003192e-02  0 
 -4.343394e-02  -4.408547e-02  0 
 -4.346180e-02  -4.817380e-02  0 
 -4.893106e-02  -4.347437e-02  0 
 -4.494607e-02  -3.985222e-02  0 
 -5.505353e-02  -4.060957e-02  0 
 -2.966700e-02  -3.133035e-02  0 
 -4.335414e-02  -3.392839e-02  0 
 -5.236032e-02  -4.041097e-02  0 
 -5.241100e-02  -4.385067e-02  0 
 -3.959480e-02  -3.406693e-02  0 
 -5.524024e-02  -4.754203e-02  0 
 -4.897845e-02  -4.353640e-02  0 
 -5.700508e-02  -5.343577e-02  0 
 -4.629584e-02  -5.040924e-02  0 
 -4.629039e-02  -4.608501e-02  0 
 -5.004267e-02  -4.819526e-02  0 
 -5.317776e-02  -4.359163e-02  0 
 -5.362934e-02  -5.211167e-02  0 
 -5.695965e-02  -5.072941e-02  0 
 -4.593081e-02  -4.274677e-02  0 
 -5.714608e-02  -4.393335e-02  0 
VECTORS displacement_ITER4 FLOAT
 -2.111121e-02  -1.544153e-02  0 
 -1.378858e-02  -1.534250e-02  0 
 -1.857740e-02  -1.836058e-02  0 
 -1.934655e-02  -1.636288e-02  0 
 -2.111330e-02  -1.722762e-02  0 
 -2.111473e-02  -1.901428e-02  0 
 -2.111573e-02  -2.079599e-02  0 
 -1.932613e-02  -1.543742e-02  0 
 -1.753307e-02  -1.542604e-02  0 
 -1.571249e-02  -1.539537e-02  0 
 -1.387843e-02  -1.720541e-02  0 
 -1.394732e-02  -1.901071e-02  0 
 -1.844789e-02  -1.612255e-02  0 
 -1.583850e-02  -1.550743e-02  0 
 -1.966134e-02  -1.539075e-02  0 
 -1.320412e-02  -1.499155e-02  0 
 -1.630665e-02  -1.475674e-02  0 
 -1.841262e-02  -1.547888e-02  0 
 -1.931417e-02  -1.617621e-02  0 
 -1.429501e-02  -1.447083e-02  0 
 -1.916470e-02  -1.874913e-02  0 
 -1.637513e-02  -1.698025e-02  0 
 -1.994735e-02  -2.136852e-02  0 
 -1.519687e-02  -2.001663e-02  0 
 -1.517315e-02  -1.811885e-02  0 
 -1.684625e-02  -1.905177e-02  0 
 -1.824994e-02  -1.699472e-02  0 
 -1.844381e-02  -2.077702e-02  0 
 -1.992810e-02  -2.016214e-02  0 
 -1.499339e-02  -1.663254e-02  0 
 -2.001452e-02  -1.714316e-02  0 
VECTORS displacement_ITER5 FLOAT
 -1.051250e-02  -6.839549e-03  0 
 -4.519033e-03  -6.719430e-03  0 
 -7.704374e-03  -9.001291e-03  0 
 -8.866841e-03  -7.527992e-03  0 
 -1.051410e-02  -8.286352e-03  0 
 -1.051522e-02  -9.733016e-03  0 
 -1.052101e-02  -1.118330e-02  0 
 -9.067716e-03  -6.836480e-03  0 
 -7.612785e-03  -6.823364e-03  0 
 -6.123122e-03  -6.785295e-03  0 
 -4.615829e-03  -8.263734e-03  0 
 -4.685756e-03  -9.756381e-03  0 
 -8.106454e-03  -6.969311e-03  0 
 -6.206128e-03  -6.799304e-03  0 
 -9.235709e-03  -6.645198e-03  0 
 -4.165358e-03  -6.358634e-03  0 
 -6.532272e-03  -5.810658e-03  0 
 -8.241134e-03  -6.602296e-03  0 
 -8.800363e-03  -7.085227e-03  0 
 -5.055910e-03  -6.304827e-03  0 
 -8.933039e-03  -9.521784e-03  0 
 -6.669957e-03  -8.091481e-03  0 
 -9.565186e-03  -1.164299e-02  0 
 -5.710957e-03  -1.057393e-02  0 
 -5.688679e-03  -9.024435e-03  0 
 -7.051848e-03  -9.780102e-03  0 
 -8.195299e-03  -8.100768e-03  0 
 -8.342341e-03  -1.116624e-02  0 
 -9.550342e-03  -1.066437e-02  0 
 -5.533075e-03  -7.802131e-03  0 
 -9.624213e-03  -8.218065e-03  0 
VECTORS displacement_ITER6 FLOAT
 -8.196300e-03  -3.631967e-03  0 
 -2.834777e-03  -3.541713e-03  0 
 -4.463327e-03  -6.330336e-03  0 
 -6.187103e-03  -4.606088e-03  0 
 -8.201120e-03  -4.931438e-03  0 
 -8.208455e-03  -6.231172e-03  0 
 -8.232231e-03  -7.561809e-03  0 
 -6.902540e-03  -3.632368e-03  0 
 -5.601671e-03  -3.630059e-03  0 
 -4.275233e-03  -3.605677e-03  0 
 -2.940767e-03  -4.917581e-03  0 
 -3.019772e-03  -6.225450e-03  0 
 -5.787094e-03  -4.353582e-03  0 
 -4.810590e-03  -3.403155e-03  0 
 -6.898528e-03  -3.429464e-03  0 
 -4.292526e-03  -3.622477e-03  0 
 -5.244878e-03  -3.277881e-03  0 
 -6.142915e-03  -3.275299e-03  0 
 -6.256491e-03  -3.972663e-03  0 
 -3.929679e-03  -3.607410e-03  0 
 -6.775952e-03  -6.037177e-03  0 
 -4.757305e-03  -4.767948e-03  0 
 -7.357684e-03  -7.955211e-03  0 
 -3.918467e-03  -6.961429e-03  0 
 -3.889106e-03  -5.596939e-03  0 
 -5.092038e-03  -6.272577e-03  0 
 -6.118204e-03  -4.767977e-03  0 
 -6.237429e-03  -7.518195e-03  0 
 -7.336847e-03  -7.069325e-03  0 
 -3.748932e-03  -4.514594e-03  0 
 -7.399542e-03  -4.866989e-03  0 
VECTORS displacement_ITER7 FLOAT
 -5.597012e-03  -4.147459e-03  0 
 -2.515656e-03  -4.037710e-03  0 
 -4.610935e-03  -4.068041e-03  0 
 -4.950130e-03  -4.329036e-03  0 
 -5.596632e-03  -4.863969e-03  0 
 -5.595272e-03  -5.579548e-03  0 
 -5.600005e-03  -6.301252e-03  0 
 -4.881885e-03  -4.145272e-03  0 
 -4.155360e-03  -4.129196e-03  0 
 -3.393252e-03  -4.092025e-03  0 
 -2.611496e-03  -4.846937e-03  0 
 -2.673642e-03  -5.615999e-03  0 
 -4.193726e-03  -3.911112e-03  0 
 -3.407969e-03  -3.840862e-03  0 
 -4.896041e-03  -4.036288e-03  0 
 -2.713967e-03  -3.713769e-03  0 
 -3.316869e-03  -3.662089e-03  0 
 -4.267823e-03  -3.927098e-03  0 
 -4.594186e-03  -4.030181e-03  0 
 -2.935547e-03  -3.601382e-03  0 
 -4.812467e-03  -5.479397e-03  0 
 -3.678694e-03  -4.772533e-03  0 
 -5.123817e-03  -6.514911e-03  0 
 -3.188358e-03  -6.033764e-03  0 
 -3.174140e-03  -5.250302e-03  0 
 -3.873665e-03  -5.624025e-03  0 
 -4.449197e-03  -4.775208e-03  0 
 -4.512616e-03  -6.294803e-03  0 
 -5.116321e-03  -6.040076e-03  0 
 -3.082508e-03  -4.625396e-03  0 
 -5.156791e-03  -4.831248e-03  0 
VECTORS displacement_ITER8 FLOAT
 -5.360473e-03  -3.937250e-03  0 
 -2.335769e-03  -3.851830e-03  0 
 -3.916725e-03  -4.227655e-03  0 
 -4.511559e-03  -4.276336e-03  0 
 -5.362413e-03  -4.653225e-03  0 
 -5.364931e-03  -5.369749e-03  0 
 -5.373059e-03  -6.096840e-03  0 
 -4.647856e-03  -3.937198e-03  0 
 -3.928077e-03  -3.928930e-03  0 
 -3.185123e-03  -3.902259e-03  0 
 -2.434664e-03  -4.631052e-03  0 
 -2.507715e-03  -5.354172e-03  0 
 -3.837863e-03  -3.883018e-03  0 
 -3.214750e-03  -3.611398e-03  0 
 -4.606781e-03  -3.839043e-03  0 
 -2.511686e-03  -3.363353e-03  0 
 -3.065310e-03  -3.450797e-03  0 
 -4.019522e-03  -3.719426e-03  0 
 -4.223425e-03  -3.900681e-03  0 
 -2.727674e-03  -3.432970e-03  0 
 -4.577625e-03  -5.263399e-03  0 
 -3.459339e-03  -4.561981e-03  0 
 -4.898148e-03  -6.319184e-03  0 
 -2.996329e-03  -5.764823e-03  0 
 -2.972736e-03  -5.022408e-03  0 
 -3.649938e-03  -5.397903e-03  0 
 -4.216353e-03  -4.564000e-03  0 
 -4.279516e-03  -6.077187e-03  0 
 -4.886334e-03  -5.830820e-03  0 
 -2.884194e-03  -4.420500e-03  0 
 -4.921212e-03  -4.618363e-03  0 
VECTORS displacement_ITER9 FLOAT
 -5.243999e-03  -3.806354e-03  0 
 -2.316500e-03  -3.721452e-03  0 
 -4.009689e-03  -4.030629e-03  0 
 -4.439632e-03  -4.179774e-03  0 
 -5.246456e-03  -4.499471e-03  0 
 -5.250024e-03  -5.193195e-03  0 
 -5.259680e-03  -5.898450e-03  0 
 -4.554443e-03  -3.806723e-03  0 
 -3.860246e-03  -3.801674e-03  0 
 -3.142159e-03  -3.774926e-03  0 
 -2.413919e-03  -4.479096e-03  0 
 -2.481641e-03  -5.186427e-03  0 
 -3.501197e-03  -3.620334e-03  0 
 -3.178045e-03  -3.461956e-03  0 
 -4.496410e-03  -3.744784e-03  0 
 -2.579706e-03  -3.203022e-03  0 
 -2.971427e-03  -3.227671e-03  0 
 -3.869186e-03  -3.552608e-03  0 
 -4.086121e-03  -3.841767e-03  0 
 -2.693660e-03  -3.487369e-03  0 
 -4.486049e-03  -5.089378e-03  0 
 -3.407744e-03  -4.414392e-03  0 
 -4.797023e-03  -6.117149e-03  0 
 -2.966962e-03  -5.585020e-03  0 
 -2.940458e-03  -4.859895e-03  0 
 -3.588112e-03  -5.218203e-03  0 
 -4.136633e-03  -4.413088e-03  0 
 -4.196837e-03  -5.878906e-03  0 
 -4.785789e-03  -5.640232e-03  0 
 -2.851811e-03  -4.275818e-03  0 
 -4.818910e-03  -4.465171e-03  0 
VECTORS displacement_ITER10 FLOAT
 -5.210504e-03  -3.802555e-03  0 
 -2.322784e-03  -3.716725e-03  0 
 -3.966730e-03  -4.032689e-03  0 
 -4.414804e-03  -4.158112e-03  0 
 -5.212383e-03  -4.484104e-03  0 
 -5.215095e-03  -5.165578e-03  0 
 -5.225311e-03  -5.859372e-03  0 
 -4.531713e-03  -3.802185e-03  0 
 -3.847819e-03  -3.796349e-03  0 
 -3.138911e-03  -3.769744e-03  0 
 -2.419922e-03  -4.464710e-03  0 
 -2.487448e-03  -5.162648e-03  0 
 -3.488563e-03  -3.574861e-03  0 
 -3.176539e-03  -3.432855e-03  0 
 -4.475053e-03  -3.730101e-03  0 
 -2.592928e-03  -3.162666e-03  0 
 -2.967411e-03  -3.198781e-03  0 
 -3.852260e-03  -3.531655e-03  0 
 -4.070928e-03  -3.814203e-03  0 
 -2.689030e-03  -3.455265e-03  0 
 -4.464976e-03  -5.065380e-03  0 
 -3.401092e-03  -4.401095e-03  0 
 -4.768519e-03  -6.070798e-03  0 
 -2.966392e-03  -5.558135e-03  0 
 -2.939957e-03  -4.840934e-03  0 
 -3.578534e-03  -5.193742e-03  0 
 -4.120396e-03  -4.399136e-03  0 
 -4.181820e-03  -5.839612e-03  0 
 -4.758242e-03  -5.604845e-03  0 
 -2.852134e-03  -4.264425e-03  0 
 -4.792406e-03  -4.450895e-03  0 
VECTORS displacement_ITER11 FLOAT
 -5.211538e-03  -3.789224e-03  0 
 -2.312428e-03  -3.703792e-03  0 
 -3.930463e-03  -4.054687e-03  0 
 -4.411124e-03  -4.130918e-03  0 
 -5.213470e-03  -4.473949e-03  0 
 -5.216279e-03  -5.158652e-03  0 
 -5.226439e-03  -5.855527e-03  0 
 -4.529643e-03  -3.788970e-03  0 
 -3.842932e-03  -3.783499e-03  0 
 -3.131299e-03  -3.757006e-03  0 
 -2.409581e-03  -4.454581e-03  0 
 -2.476925e-03  -5.155696e-03  0 
 -3.508895e-03  -3.528305e-03  0 
 -3.161332e-03  -3.430688e-03  0 
 -4.479688e-03  -3.704123e-03  0 
 -2.581700e-03  -3.197176e-03  0 
 -2.972138e-03  -3.155638e-03  0 
 -3.859271e-03  -3.509178e-03  0 
 -4.083801e-03  -3.779928e-03  0 
 -2.676407e-03  -3.454106e-03  0 
 -4.462616e-03  -5.057711e-03  0 
 -3.394427e-03  -4.390719e-03  0 
 -4.768018e-03  -6.068610e-03  0 
 -2.958473e-03  -5.551809e-03  0 
 -2.931776e-03  -4.832226e-03  0 
 -3.572316e-03  -5.186308e-03  0 
 -4.116470e-03  -4.388553e-03  0 
 -4.178329e-03  -5.835165e-03  0 
 -4.757452e-03  -5.599893e-03  0 
 -2.843559e-03  -4.253430e-03  0 
 -4.791488e-03  -4.440536e-03  0 
VECTORS displacement_ITER12 FLOAT
 -5.215198e-03  -3.784379e-03  0 
 -2.311573e-03  -3.699088e-03  0 
 -3.939824e-03  -4.043848e-03  0 
 -4.414043e-03  -4.130157e-03  0 
 -5.217119e-03  -4.470354e-03  0 
 -5.219888e-03  -5.156323e-03  0 
 -5.229763e-03  -5.853967e-03  0 
 -4.531983e-03  -3.784066e-03  0 
 -3.844097e-03  -3.778637e-03  0 
 -3.131377e-03  -3.752306e-03  0 
 -2.408756e-03  -4.450839e-03  0 
 -2.476175e-03  -5.152879e-03  0 
 -3.505674e-03  -3.531536e-03  0 
 -3.160701e-03  -3.426239e-03  0 
 -4.480830e-03  -3.702297e-03  0 
 -2.585083e-03  -3.196859e-03  0 
 -2.967745e-03  -3.156383e-03  0 
 -3.858620e-03  -3.507536e-03  0 
 -4.082838e-03  -3.780511e-03  0 
 -2.678456e-03  -3.449766e-03  0 
 -4.465020e-03  -5.055130e-03  0 
 -3.394816e-03  -4.386882e-03  0 
 -4.770887e-03  -6.067485e-03  0 
 -2.958409e-03  -5.548634e-03  0 
 -2.931593e-03  -4.828969e-03  0 
 -3.572902e-03  -5.183733e-03  0 
 -4.118086e-03  -4.384662e-03  0 
 -4.180276e-03  -5.834250e-03  0 
 -4.760387e-03  -5.598290e-03  0 
 -2.843280e-03  -4.249392e-03  0 
 -4.794382e-03  -4.436897e-03  0 
VECTORS displacement_ITER13 FLOAT
 -5.214341e-03  -3.784787e-03  0 
 -2.311581e-03  -3.699500e-03  0 
 -3.940583e-03  -4.041914e-03  0 
 -4.413915e-03  -4.130266e-03  0 
 -5.216265e-03  -4.470559e-03  0 
 -5.219038e-03  -5.156333e-03  0 
 -5.228882e-03  -5.853739e-03  0 
 -4.531331e-03  -3.784477e-03  0 
 -3.843672e-03  -3.779061e-03  0 
 -3.131170e-03  -3.752724e-03  0 
 -2.408752e-03  -4.451050e-03  0 
 -2.476154e-03  -5.152933e-03  0 
 -3.505154e-03  -3.531755e-03  0 
 -3.159847e-03  -3.424875e-03  0 
 -4.480073e-03  -3.702964e-03  0 
 -2.589911e-03  -3.198967e-03  0 
 -2.964347e-03  -3.156220e-03  0 
 -3.857509e-03  -3.508396e-03  0 
 -4.082158e-03  -3.780703e-03  0 
 -2.676742e-03  -3.450759e-03  0 
 -4.464394e-03  -5.055145e-03  0 
 -3.394537e-03  -4.387117e-03  0 
 -4.770180e-03  -6.067159e-03  0 
 -2.958244e-03  -5.548560e-03  0 
 -2.931456e-03  -4.829081e-03  0 
 -3.572552e-03  -5.183687e-03  0 
 -4.117564e-03  -4.384884e-03  0 
 -4.179695e-03  -5.834140e-03  0 
 -4.759689e-03  -5.598166e-03  0 
 -2.843158e-03  -4.249665e-03  0 
 -4.793650e-03  -4.437108e-03  0 
VECTORS displacement_ITER14 FLOAT
 -5.214403e-03  -3.784785e-03  0 
 -2.311534e-03  -3.699481e-03  0 
 -3.940014e-03  -4.043347e-03  0 
 -4.413660e-03  -4.130555e-03  0 
 -5.216327e-03  -4.470573e-03  0 
 -5.219099e-03  -5.156362e-03  0 
 -5.228957e-03  -5.853806e-03  0 
 -4.531378e-03  -3.784475e-03  0 
 -3.843695e-03  -3.779051e-03  0 
 -3.131159e-03  -3.752707e-03  0 
 -2.408706e-03  -4.451067e-03  0 
 -2.476106e-03  -5.152988e-03  0 
 -3.505232e-03  -3.532246e-03  0 
 -3.159893e-03  -3.424549e-03  0 
 -4.480157e-03  -3.702973e-03  0 
 -2.589986e-03  -3.198052e-03  0 
 -2.964152e-03  -3.155303e-03  0 
 -3.857765e-03  -3.508393e-03  0 
 -4.082243e-03  -3.781050e-03  0 
 -2.676489e-03  -3.450759e-03  0 
 -4.464434e-03  -5.055179e-03  0 
 -3.394541e-03  -4.387129e-03  0 
 -4.770228e-03  -6.067223e-03  0 
 -2.958218e-03  -5.548628e-03  0 
 -2.931434e-03  -4.829114e-03  0 
 -3.572570e-03  -5.183739e-03  0 
 -4.117599e-03  -4.384901e-03  0 
 -4.179730e-03  -5.834170e-03  0 
 -4.759732e-03  -5.598207e-03  0 
 -2.843134e-03  -4.249670e-03  0 
 -4.793702e-03  -4.437122e-03  0 
CELL_DATA 43
TENSORS element_stresses FLOAT
 -1.143042e-03  9.696481e-04  0 
 9.696481e-04  -2.375355e-04  0 
 0  0  0 

 -2.873815e-03  1.934002e-03  0 
 1.934002e-03  1.097194e-03  0 
 0  0  0 

 -1.849601e-03  1.735981e-03  0 
 1.735981e-03  -5.536407e-04  0 
 0  0  0 

 -1.201604e-03  9.982525e-04  0 
 9.982525e-04  6.680475e-05  0 
 0  0  0 

 -1.221123e-03  9.994415e-04  0 
 9.994415e-04  1.134038e-04  0 
 0  0  0 

 -1.708297e-03  1.210241e-03  0 
 1.210241e-03  6.991973e-04  0 
 0  0  0 

 -1.264819e-03  1.204082e-03  0 
 1.204082e-03  6.257926e-05  0 
 0  0  0 

 -1.451651e-03  1.287308e-03  0 
 1.287308e-03  -4.137985e-04  0 
 0  0  0 

 -1.450263e-03  1.224930e-03  0 
 1.224930e-03  1.846221e-04  0 
 0  0  0 

 -1.808756e-03  9.478102e-04  0 
 9.478102e-04  1.838185e-03  0 
 0  0  0 

 -1.087726e-03  9.171506e-04  0 
 9.171506e-04  -4.326381e-05  0 
 0  0  0 

 -8.380585e-04  1.209482e-03  0 
 1.209482e-03  -3.851620e-05  0 
 0  0  0 

 -1.595943e-03  1.099481e-03  0 
 1.099481e-03  1.025792e-03  0 
 0  0  0 

 -2.199880e-03  1.953548e-03  0 
 1.953548e-03  4.591131e-04  0 
 0  0  0 

 -7.527862e-04  1.130036e-03  0 
 1.130036e-03  -3.459457e-05  0 
 0  0  0 

 -1.449046e-03  4.833742e-04  0 
 4.833742e-04  1.485126e-03  0 
 0  0  0 

 -1.831522e-03  7.886696e-04  0 
 7.886696e-04  1.289817e-03  0 
 0  0  0 

 -4.821316e-03  -4.675235e-02  0 
 -4.675235e-02  1.039308e-01  0 
 0  0  0 

 -6.349023e-02  -1.017061e-02  0 
 -1.017061e-02  1.104655e-01  0 
 0  0  0 

 3.146800e-03  -1.607309e-02  0 
 -1.607309e-02  -3.750030e-02  0 
 0  0  0 

 1.166384e-02  -7.863372e-04  0 
 -7.863372e-04  -5.263674e-02  0 
 0  0  0 

 2.848020e-03  4.911361e-03  0 
 4.911361e-03  -3.729924e-02  0 
 0  0  0 

 1.356825e-02  2.870514e-02  0 
 2.870514e-02  -5.686677e-02  0 
 0  0  0 

 -2.275565e-01  5.540351e-03  0 
 5.540351e-03  1.401488e-01  0 
 0  0  0 

 6.921208e-03  -1.943812e-02  0 
 -1.943812e-02  2.377327e-02  0 
 0  0  0 

 3.250602e-03  4.946714e-03  0 
 4.946714e-03  -3.574526e-02  0 
 0  0  0 

 -1.042216e-01  1.459543e-02  0 
 1.459543e-02  -2.546252e-02  0 
 0  0  0 

 -4.859592e-03  2.015942e-02  0 
 2.015942e-02  3.243867e-02  0 
 0  0  0 

 -1.322376e-01  1.415199e-01  0 
 1.415199e-01  1.732301e-01  0 
 0  0  0 

 -3.251058e-01  3.708836e-02  0 
 3.708836e-02  2.119440e-01  0 
 0  0  0 

 1.550224e-03  -8.080739e-03  0 
 -8.080739e-03  -1.536030e-02  0 
 0  0  0 

 1.736693e-02  4.263798e-02  0 
 4.263798e-02  2.048648e-04  0 
 0  0  0 

 -1.084087e-02  1.341348e-02  0 
 1.341348e-02  1.298116e-02  0 
 0  0  0 

 -7.362897e-02  7.745393e-02  0 
 7.745393e-02  1.826531e-01  0 
 0  0  0 

 -1.351657e-01  6.500705e-02  0 
 6.500705e-02  -2.364435e-02  0 
 0  0  0 

 -3.106049e-02  1.458779e-02  0 
 1.458779e-02  2.789498e-02  0 
 0  0  0 

 -1.018499e-03  1.875804e-02  0 
 1.875804e-02  -6.091435e-03  0 
 0  0  0 

 -5.313862e-03  2.918913e-03  0 
 2.918913e-03  7.930347e-03  0 
 0  0  0 

 2.484683e-03  -4.389051e-03  0 
 -4.389051e-03  1.984878e-03  0 
 0  0  0 

 -9.048246e-03  2.719729e-03  0 
 2.719729e-03  6.809931e-03  0 
 0  0  0 

 1.185864e-02  -1.960587e-03  0 
 -1.960587e-03  -1.705212e-02  0 
 0  0  0 

 -3.837345e-04  -3.625393e-03  0 
 -3.625393e-03  -2.082843e-02  0 
 0  0  0 

 6.392521e-04  1.328173e-02  0 
 1.328173e-02  -6.606272e-03  0 
 0  0  0 

TENSORS element_stresses FLOAT
 -1.143042e-03  9.696481e-04  0 
 9.696481e-04  -2.375355e-04  0 
 0  0  0 

 -2.873815e-03  1.934002e-03  0 
 1.934002e-03  1.097194e-03  0 
 0  0  0 

 -1.849601e-03  1.735981e-03  0 
 1.735981e-03  -5.536407e-04  0 
 0  0  0 

 -1.201604e-03  9.982525e-04  0 
 9.982525e-04  6.680475e-05  0 
 0  0  0 

 -1.221123e-03  9.994415e-04  0 
 9.994415e-04  1.134038e-04  0 
 0  0  0 

 -1.708297e-03  1.210241e-03  0 
 1.210241e-03  6.991973e-04  0 
 0  0  0 

 -1.264819e-03  1.204082e-03  0 
 1.204082e-03  6.257926e-05  0 
 0  0  0 

 -1.451651e-03  1.287308e-03  0 
 1.287308e-03  -4.137985e-04  0 
 0  0  0 

 -1.450263e-03  1.224930e-03  0 
 1.224930e-03  1.846221e-04  0 
 0  0  0 

 -1.808756e-03  9.478102e-04  0 
 9.478102e-04  1.838185e-03  0 
 0  0  0 

 -1.087726e-03  9.171506e-04  0 
 9.171506e-04  -4.326381e-05  0 
 0  0  0 

 -8.380585e-04  1.209482e-03  0 
 1.209482e-03  -3.851620e-05  0 
 0  0  0 

 -1.595943e-03  1.099481e-03  0 
 1.099481e-03  1.025792e-03  0 
 0  0  0 

 -2.199880e-03  1.953548e-03  0 
 1.953548e-03  4.591131e-04  0 
 0  0  0 

 -7.527862e-04  1.130036e-03  0 
 1.130036e-03  -3.459457e-05  0 
 0  0  0 

 -1.449046e-03  4.833742e-04  0 
 4.833742e-04  1.485126e-03  0 
 0  0  0 

 -1.831522e-03  7.886696e-04  0 
 7.886696e-04  1.289817e-03  0 
 0  0  0 

 -4.821316e-03  -4.675235e-02  0 
 -4.675235e-02  1.039308e-01  0 
 0  0  0 

 -6.349023e-02  -1.017061e-02  0 
 -1.017061e-02  1.104655e-01  0 
 0  0  0 

 3.146800e-03  -1.607309e-02  0 
 -1.607309e-02  -3.750030e-02  0 
 0  0  0 

 1.166384e-02  -7.863372e-04  0 
 -7.863372e-04  -5.263674e-02  0 
 0  0  0 

 2.848020e-03  4.911361e-03  0 
 4.911361e-03  -3.729924e-02  0 
 0  0  0 

 1.356825e-02  2.870514e-02  0 
 2.870514e-02  -5.686677e-02  0 
 0  0  0 

 -2.275565e-01  5.540351e-03  0 
 5.540351e-03  1.401488e-01  0 
 0  0  0 

 6.921208e-03  -1.943812e-02  0 
 -1.943812e-02  2.377327e-02  0 
 0  0  0 

 3.250602e-03  4.946714e-03  0 
 4.946714e-03  -3.574526e-02  0 
 0  0  0 

 -1.042216e-01  1.459543e-02  0 
 1.459543e-02  -2.546252e-02  0 
 0  0  0 

 -4.859592e-03  2.015942e-02  0 
 2.015942e-02  3.243867e-02  0 
 0  0  0 

 -1.322376e-01  1.415199e-01  0 
 1.415199e-01  1.732301e-01  0 
 0  0  0 

 -3.251058e-01  3.708836e-02  0 
 3.708836e-02  2.119440e-01  0 
 0  0  0 

 1.550224e-03  -8.080739e-03  0 
 -8.080739e-03  -1.536030e-02  0 
 0  0  0 

 1.736693e-02  4.263798e-02  0 
 4.263798e-02  2.048648e-04  0 
 0  0  0 

 -1.084087e-02  1.341348e-02  0 
 1.341348e-02  1.298116e-02  0 
 0  0  0 

 -7.362897e-02  7.745393e-02  0 
 7.745393e-02  1.826531e-01  0 
 0  0  0 

 -1.351657e-01  6.500705e-02  0 
 6.500705e-02  -2.364435e-02  0 
 0  0  0 

 -3.106049e-02  1.458779e-02  0 
 1.458779e-02  2.789498e-02  0 
 0  0  0 

 -1.018499e-03  1.875804e-02  0 
 1.875804e-02  -6.091435e-03  0 
 0  0  0 

 -5.313862e-03  2.918913e-03  0 
 2.918913e-03  7.930347e-03  0 
 0  0  0 

 2.484683e-03  -4.389051e-03  0 
 -4.389051e-03  1.984878e-03  0 
 0  0  0 

 -9.048246e-03  2.719729e-03  0 
 2.719729e-03  6.809931e-03  0 
 0  0  0 

 1.185864e-02  -1.960587e-03  0 
 -1.960587e-03  -1.705212e-02  0 
 0  0  0 

 -3.837345e-04  -3.625393e-03  0 
 -3.625393e-03  -2.082843e-02  0 
 0  0  0 

 6.392521e-04  1.328173e-02  0 
 1.328173e-02  -6.606272e-03  0 
 0  0  0 

