# vtk DataFile Version 3.1
this is an vtk file created by FEMAC
ASCII
DATASET UNSTRUCTURED_GRID
POINTS 31 FLOAT
5.000000 2.000000 0.000000
4.500000 2.000000 0.000000
4.750000 2.000000 0.000000
5.000000 1.500000 0.000000
5.000000 1.750000 0.000000
5.000000 2.250000 0.000000
5.000000 2.500000 0.000000
5.000000 2.750000 0.000000
5.250000 2.000000 0.000000
4.654136 1.816702 0.000000
4.789602 1.627399 0.000000
4.544074 1.619719 0.000000
4.840801 1.845599 0.000000
4.674167 2.178356 0.000000
4.500000 2.225000 0.000000
4.828194 2.341416 0.000000
4.808128 2.581646 0.000000
4.399662 2.398247 0.000000
4.630720 2.401594 0.000000
4.507893 2.661856 0.000000
4.761003 2.832250 0.000000
4.850472 2.153954 0.000000
5.194695 1.661595 0.000000
5.155217 1.845050 0.000000
5.325972 2.178472 0.000000
5.171968 2.341551 0.000000
5.216647 2.581177 0.000000
5.399662 2.398247 0.000000
5.507893 2.661856 0.000000
5.245757 2.832172 0.000000
5.149588 2.154005 0.000000
CELLS 43 172 
3 1 9 2
3 4 10  3
3 11 10  9
3 2 12  0
3 12  4  0
3 12  2  9
3 12 10  4
3 9 10 12
3 13  1  2
3 13 14  1
3 13 18 14
3 15  5  6
3 7 16  6
3 15 18 13
3 17 14 18
3 21  2  0
3 5 21  0
3 2 21 13
3 20 16  7
3 15 21  5
3 15 13 21
3 15  6 16
3 15 16 18
3 17 18 19
3 19 18 16
3 19 16 20
3 22  4  3
3 4 23  0
3 23  8  0
3 22 23  4
3 5 25  6
3 26  7  6
3 27 25 24
3 30  5  0
3 30  8 24
3 8 30  0
3 26 29  7
3 30 25  5
3 24 25 30
3 6 25 26
3 26 25 27
3 27 28 26
3 26 28 29
CELL_TYPES 43
5 5 5 5 5 5 5 5 5 5 5 5 5 5 5 5 5 5 5 5 5 5 5 5 5 5 5 5 5 5 5 5 5 5 5 5 5 5 5 5 5 5 5 
POINT_DATA 31
VECTORS displacement_ITER1 FLOAT
 -5.714973e-02  -3.101522e-01  0 
 -5.717244e-02  -2.816307e-01  0 
 -5.715962e-02  -2.958697e-01  0 
 -7.632520e-02  -3.103221e-01  0 
 -6.679610e-02  -3.102686e-01  0 
 -4.294817e-02  -3.101029e-01  0 
 -2.874036e-02  -3.101006e-01  0 
 -1.452260e-02  -3.101087e-01  0 
 -5.710694e-02  -3.199659e-01  0 
 -5.795334e-02  -2.801024e-01  0 
 -6.809137e-02  -2.948128e-01  0 
 -6.405980e-02  -2.458534e-01  0 
 -5.988608e-02  -2.976503e-01  0 
 -4.701210e-02  -2.915644e-01  0 
 -4.436225e-02  -2.816476e-01  0 
 -3.774968e-02  -3.003289e-01  0 
 -2.409854e-02  -2.991815e-01  0 
 -3.451695e-02  -2.759431e-01  0 
 -3.432759e-02  -2.890882e-01  0 
 -1.954179e-02  -2.820957e-01  0 
 -9.859475e-03  -2.965071e-01  0 
 -4.839395e-02  -3.016070e-01  0 
 -7.018298e-02  -3.177269e-01  0 
 -6.316549e-02  -3.162169e-01  0 
 -4.599691e-02  -3.404736e-01  0 
 -3.870837e-02  -3.281734e-01  0 
 -2.421001e-02  -3.362906e-01  0 
 -3.511760e-02  -3.546168e-01  0 
 -1.111674e-02  -3.855756e-01  0 
 1.939305e-03  -3.503812e-01  0 
 -5.019552e-02  -3.212564e-01  0 
VECTORS displacement_ITER2 FLOAT
 -2.206810e-02  -2.490094e-01  0 
 -2.209165e-02  -2.280696e-01  0 
 -2.208070e-02  -2.385144e-01  0 
 -3.703149e-02  -2.492094e-01  0 
 -2.961005e-02  -2.491446e-01  0 
 -1.167329e-02  -2.489385e-01  0 
 -1.275175e-03  -2.489256e-01  0 
 9.131552e-03  -2.489344e-01  0 
 -2.201400e-02  -2.567462e-01  0 
 -2.274821e-02  -2.264982e-01  0 
 -3.000869e-02  -2.379489e-01  0 
 -2.577169e-02  -2.020107e-01  0 
 -2.424734e-02  -2.396923e-01  0 
 -1.464049e-02  -2.353583e-01  0 
 -1.269967e-02  -2.280885e-01  0 
 -7.864484e-03  -2.417763e-01  0 
 2.122464e-03  -2.409299e-01  0 
 -5.495498e-03  -2.239129e-01  0 
 -5.358687e-03  -2.335385e-01  0 
 5.455999e-03  -2.284105e-01  0 
 1.254148e-02  -2.389755e-01  0 
 -1.565228e-02  -2.427245e-01  0 
 -3.225464e-02  -2.549648e-01  0 
 -2.678309e-02  -2.537809e-01  0 
 -1.428699e-02  -2.733125e-01  0 
 -8.907596e-03  -2.635027e-01  0 
 1.547075e-03  -2.699805e-01  0 
 -6.614608e-03  -2.846427e-01  0 
 1.072908e-02  -3.091394e-01  0 
 2.114012e-02  -2.808341e-01  0 
 -1.729985e-02  -2.579925e-01  0 
VECTORS displacement_ITER3 FLOAT
 -3.530418e-02  -1.580032e-01  0 
 -3.533228e-02  -1.393866e-01  0 
 -3.532370e-02  -1.486633e-01  0 
 -5.609579e-02  -1.582407e-01  0 
 -4.574717e-02  -1.581644e-01  0 
 -2.610184e-02  -1.578935e-01  0 
 -1.689953e-02  -1.578602e-01  0 
 -7.689727e-03  -1.578682e-01  0 
 -3.523063e-02  -1.686853e-01  0 
 -4.048765e-02  -1.409986e-01  0 
 -4.806497e-02  -1.497832e-01  0 
 -4.411191e-02  -1.311018e-01  0 
 -4.052759e-02  -1.507615e-01  0 
 -2.871736e-02  -1.458592e-01  0 
 -2.699679e-02  -1.394096e-01  0 
 -2.272385e-02  -1.515414e-01  0 
 -1.389144e-02  -1.507802e-01  0 
 -2.062180e-02  -1.357125e-01  0 
 -2.050399e-02  -1.442366e-01  0 
 -1.094152e-02  -1.396814e-01  0 
 -4.671580e-03  -1.490507e-01  0 
 -2.961525e-02  -1.524010e-01  0 
 -4.942852e-02  -1.662617e-01  0 
 -4.182033e-02  -1.645983e-01  0 
 -2.995793e-02  -1.789973e-01  0 
 -2.405888e-02  -1.700818e-01  0 
 -1.526245e-02  -1.746845e-01  0 
 -2.288332e-02  -1.869987e-01  0 
 -1.062940e-02  -2.032635e-01  0 
 -1.072121e-03  -1.810647e-01  0 
 -3.099784e-02  -1.669136e-01  0 
VECTORS displacement_ITER4 FLOAT
 -3.237450e-02  -1.291907e-01  0 
 -3.240162e-02  -1.133947e-01  0 
 -3.239504e-02  -1.212553e-01  0 
 -5.406270e-02  -1.294727e-01  0 
 -4.327272e-02  -1.293804e-01  0 
 -2.459821e-02  -1.290549e-01  0 
 -1.682814e-02  -1.290083e-01  0 
 -9.052605e-03  -1.290146e-01  0 
 -3.229071e-02  -1.403607e-01  0 
 -3.878221e-02  -1.161772e-01  0 
 -4.564796e-02  -1.233429e-01  0 
 -4.055487e-02  -1.151488e-01  0 
 -3.841081e-02  -1.234975e-01  0 
 -2.679857e-02  -1.188792e-01  0 
 -2.534372e-02  -1.134204e-01  0 
 -2.173999e-02  -1.236796e-01  0 
 -1.428745e-02  -1.230267e-01  0 
 -1.996140e-02  -1.102978e-01  0 
 -1.986398e-02  -1.174998e-01  0 
 -1.179757e-02  -1.136413e-01  0 
 -6.506077e-03  -1.215667e-01  0 
 -2.755837e-02  -1.244220e-01  0 
 -4.711477e-02  -1.378276e-01  0 
 -3.917965e-02  -1.360870e-01  0 
 -2.848730e-02  -1.470313e-01  0 
 -2.304287e-02  -1.392648e-01  0 
 -1.576862e-02  -1.427928e-01  0 
 -2.237528e-02  -1.530126e-01  0 
 -1.297204e-02  -1.650765e-01  0 
 -4.765037e-03  -1.473016e-01  0 
 -2.865377e-02  -1.373384e-01  0 
VECTORS displacement_ITER5 FLOAT
 -2.750855e-02  -8.666197e-02  0 
 -2.753764e-02  -7.259644e-02  0 
 -2.753161e-02  -7.958229e-02  0 
 -5.130012e-02  -8.700574e-02  0 
 -3.946510e-02  -8.689433e-02  0 
 -2.061989e-02  -8.649224e-02  0 
 -1.374287e-02  -8.642986e-02  0 
 -6.860503e-03  -8.643273e-02  0 
 -2.741199e-02  -9.893892e-02  0 
 -3.496245e-02  -7.624410e-02  0 
 -4.216253e-02  -8.237373e-02  0 
 -3.570834e-02  -8.184388e-02  0 
 -3.443181e-02  -8.191712e-02  0 
 -2.255901e-02  -7.747097e-02  0 
 -2.126987e-02  -7.262622e-02  0 
 -1.808373e-02  -8.172205e-02  0 
 -1.149263e-02  -8.113150e-02  0 
 -1.650566e-02  -6.986027e-02  0 
 -1.642151e-02  -7.623980e-02  0 
 -9.289337e-03  -7.281021e-02  0 
 -4.608842e-03  -7.983790e-02  0 
 -2.323237e-02  -8.239764e-02  0 
 -4.368145e-02  -9.616233e-02  0 
 -3.498070e-02  -9.424430e-02  0 
 -2.457840e-02  -1.016955e-01  0 
 -1.938859e-02  -9.513248e-02  0 
 -1.268371e-02  -9.822772e-02  0 
 -1.879696e-02  -1.065553e-01  0 
 -8.890248e-03  -1.186458e-01  0 
 -1.672541e-03  -1.036192e-01  0 
 -2.396262e-02  -9.432755e-02  0 
VECTORS displacement_ITER6 FLOAT
 -1.649016e-02  -6.592486e-02  0 
 -1.651887e-02  -5.570497e-02  0 
 -1.651176e-02  -6.076035e-02  0 
 -3.985141e-02  -6.631666e-02  0 
 -2.824044e-02  -6.618975e-02  0 
 -1.153336e-02  -6.573364e-02  0 
 -6.599565e-03  -6.566092e-02  0 
 -1.666226e-03  -6.565884e-02  0 
 -1.639305e-02  -7.801904e-02  0 
 -2.343580e-02  -5.716947e-02  0 
 -3.111223e-02  -6.194256e-02  0 
 -2.678063e-02  -5.889314e-02  0 
 -2.299597e-02  -6.197356e-02  0 
 -1.291565e-02  -5.923645e-02  0 
 -1.198950e-02  -5.574089e-02  0 
 -9.705364e-03  -6.229346e-02  0 
 -4.984198e-03  -6.185584e-02  0 
 -8.571081e-03  -5.375668e-02  0 
 -8.511567e-03  -5.834260e-02  0 
 -3.405754e-03  -5.586695e-02  0 
 -5.310849e-05  -6.092910e-02  0 
 -1.339913e-02  -6.280103e-02  0 
 -3.238210e-02  -7.529014e-02  0 
 -2.384411e-02  -7.339900e-02  0 
 -1.484746e-02  -7.670838e-02  0 
 -1.067457e-02  -7.179591e-02  0 
 -6.139349e-03  -7.364501e-02  0 
 -1.038748e-02  -7.904808e-02  0 
 -4.741874e-03  -8.551712e-02  0 
 1.252656e-04  -7.639764e-02  0 
 -1.361354e-02  -7.224111e-02  0 
VECTORS displacement_ITER7 FLOAT
 -1.230035e-02  -5.042742e-02  0 
 -1.232647e-02  -4.283900e-02  0 
 -1.231887e-02  -4.657228e-02  0 
 -3.273284e-02  -5.086699e-02  0 
 -2.260084e-02  -5.072421e-02  0 
 -8.664041e-03  -5.021924e-02  0 
 -5.060843e-03  -5.013923e-02  0 
 -1.464518e-03  -5.013193e-02  0 
 -1.220457e-02  -6.109336e-02  0 
 -1.787039e-02  -4.284410e-02  0 
 -2.480906e-02  -4.661105e-02  0 
 -2.116800e-02  -4.190225e-02  0 
 -1.768227e-02  -4.699237e-02  0 
 -9.665344e-03  -4.545044e-02  0 
 -8.987905e-03  -4.287883e-02  0 
 -7.320978e-03  -4.768999e-02  0 
 -3.880379e-03  -4.735795e-02  0 
 -6.491142e-03  -4.143004e-02  0 
 -6.448257e-03  -4.478810e-02  0 
 -2.729755e-03  -4.296604e-02  0 
 -2.870439e-04  -4.668293e-02  0 
 -1.001873e-02  -4.808218e-02  0 
 -2.622411e-02  -5.868212e-02  0 
 -1.876608e-02  -5.701967e-02  0 
 -1.118946e-02  -5.768530e-02  0 
 -7.906417e-03  -5.420916e-02  0 
 -5.130559e-03  -5.506805e-02  0 
 -7.722671e-03  -5.810667e-02  0 
 -6.549924e-03  -5.894634e-02  0 
 -3.575589e-03  -5.471009e-02  0 
 -9.875169e-03  -5.526679e-02  0 
VECTORS displacement_ITER8 FLOAT
 -1.431566e-02  -4.298804e-02  0 
 -1.433450e-02  -3.405106e-02  0 
 -1.432941e-02  -3.845555e-02  0 
 -3.255010e-02  -4.346126e-02  0 
 -2.353512e-02  -4.330607e-02  0 
 -1.000427e-02  -4.277020e-02  0 
 -5.731660e-03  -4.268608e-02  0 
 -1.468796e-03  -4.267587e-02  0 
 -1.422061e-02  -5.258756e-02  0 
 -1.926103e-02  -3.553428e-02  0 
 -2.494036e-02  -3.935154e-02  0 
 -1.948879e-02  -3.767075e-02  0 
 -1.920130e-02  -3.943133e-02  0 
 -1.119591e-02  -3.712790e-02  0 
 -1.039285e-02  -3.408917e-02  0 
 -8.415253e-03  -3.977913e-02  0 
 -4.332481e-03  -3.939177e-02  0 
 -7.432274e-03  -3.237117e-02  0 
 -7.381108e-03  -3.634774e-02  0 
 -2.966692e-03  -3.419497e-02  0 
 -6.934859e-05  -3.858953e-02  0 
 -1.161566e-02  -4.023342e-02  0 
 -2.676714e-02  -5.040375e-02  0 
 -2.011880e-02  -4.891937e-02  0 
 -1.225091e-02  -5.018941e-02  0 
 -8.791165e-03  -4.674963e-02  0 
 -5.628731e-03  -4.756280e-02  0 
 -8.280646e-03  -5.057770e-02  0 
 -7.919784e-03  -4.977515e-02  0 
 -4.890401e-03  -4.596151e-02  0 
 -1.145184e-02  -4.745629e-02  0 
VECTORS displacement_ITER9 FLOAT
 -8.829214e-03  -3.131714e-02  0 
 -8.841059e-03  -2.235947e-02  0 
 -8.838045e-03  -2.677414e-02  0 
 -2.112432e-02  -3.180679e-02  0 
 -1.509516e-02  -3.164598e-02  0 
 -4.501738e-03  -3.109830e-02  0 
 -2.158183e-04  -3.101568e-02  0 
 4.058321e-03  -3.100620e-02  0 
 -8.737910e-03  -3.796543e-02  0 
 -1.212351e-02  -2.481725e-02  0 
 -1.613735e-02  -2.837802e-02  0 
 -1.191506e-02  -2.629684e-02  0 
 -1.219670e-02  -2.823692e-02  0 
 -5.696834e-03  -2.544122e-02  0 
 -4.890958e-03  -2.239464e-02  0 
 -2.908271e-03  -2.809939e-02  0 
 1.186960e-03  -2.771299e-02  0 
 -1.921672e-03  -2.067049e-02  0 
 -1.871256e-03  -2.465876e-02  0 
 2.557477e-03  -2.249851e-02  0 
 5.464725e-03  -2.690916e-02  0 
 -6.118514e-03  -2.855396e-02  0 
 -1.727259e-02  -3.642542e-02  0 
 -1.280611e-02  -3.541766e-02  0 
 -6.210533e-03  -3.719038e-02  0 
 -3.048671e-03  -3.436675e-02  0 
 -2.494856e-04  -3.487285e-02  0 
 -2.402500e-03  -3.727619e-02  0 
 -4.440452e-03  -3.323083e-02  0 
 -1.855887e-03  -3.105339e-02  0 
 -6.039465e-03  -3.459276e-02  0 
VECTORS displacement_ITER10 FLOAT
 -1.071257e-02  -2.457115e-02  0 
 -1.072081e-02  -1.689763e-02  0 
 -1.071889e-02  -2.067188e-02  0 
 -1.600880e-02  -2.506180e-02  0 
 -1.348881e-02  -2.490103e-02  0 
 -7.021546e-03  -2.435769e-02  0 
 -3.369536e-03  -2.428108e-02  0 
 2.725403e-04  -2.427658e-02  0 
 -1.062385e-02  -2.772648e-02  0 
 -1.189933e-02  -1.948281e-02  0 
 -1.436317e-02  -2.267162e-02  0 
 -1.271897e-02  -1.812584e-02  0 
 -1.217225e-02  -2.231540e-02  0 
 -8.034975e-03  -1.953173e-02  0 
 -7.347502e-03  -1.692954e-02  0 
 -5.661540e-03  -2.179774e-02  0 
 -2.174910e-03  -2.146596e-02  0 
 -4.818667e-03  -1.545856e-02  0 
 -4.777777e-03  -1.885980e-02  0 
 -1.008106e-03  -1.701017e-02  0 
 1.470650e-03  -2.078473e-02  0 
 -8.394693e-03  -2.219317e-02  0 
 -1.442481e-02  -2.695085e-02  0 
 -1.252751e-02  -2.650283e-02  0 
 -8.124074e-03  -2.879291e-02  0 
 -5.688954e-03  -2.681680e-02  0 
 -3.501927e-03  -2.722230e-02  0 
 -5.048871e-03  -2.902769e-02  0 
 -8.035416e-03  -2.423420e-02  0 
 -6.008198e-03  -2.293230e-02  0 
 -8.492897e-03  -2.648773e-02  0 
VECTORS displacement_ITER11 FLOAT
 -8.105920e-03  -1.848513e-02  0 
 -8.107843e-03  -1.053939e-02  0 
 -8.109025e-03  -1.444964e-02  0 
 -9.717256e-03  -1.898343e-02  0 
 -9.049103e-03  -1.881954e-02  0 
 -4.275553e-03  -1.827172e-02  0 
 -4.823414e-04  -1.819733e-02  0 
 3.305160e-03  -1.819639e-02  0 
 -8.017477e-03  -1.981059e-02  0 
 -8.215960e-03  -1.419734e-02  0 
 -9.566016e-03  -1.733965e-02  0 
 -8.210549e-03  -1.345611e-02  0 
 -8.656049e-03  -1.656652e-02  0 
 -5.327420e-03  -1.326527e-02  0 
 -4.612831e-03  -1.056681e-02  0 
 -2.864329e-03  -1.561569e-02  0 
 7.582933e-04  -1.527240e-02  0 
 -1.987157e-03  -9.037039e-03  0 
 -1.946148e-03  -1.256676e-02  0 
 1.970216e-03  -1.064506e-02  0 
 4.548136e-03  -1.456506e-02  0 
 -5.701741e-03  -1.602403e-02  0 
 -9.330982e-03  -1.943115e-02  0 
 -8.786550e-03  -1.927942e-02  0 
 -5.150448e-03  -2.314285e-02  0 
 -2.935727e-03  -2.114294e-02  0 
 -2.082888e-04  -2.207062e-02  0 
 -2.109073e-03  -2.457543e-02  0 
 -2.654577e-03  -2.314035e-02  0 
 -2.312079e-04  -1.977369e-02  0 
 -6.038342e-03  -2.008538e-02  0 
VECTORS displacement_ITER12 FLOAT
 -9.330482e-03  -1.525416e-02  0 
 -9.328498e-03  -1.027347e-02  0 
 -9.331373e-03  -1.270055e-02  0 
 -6.446393e-03  -1.575719e-02  0 
 -8.030713e-03  -1.559114e-02  0 
 -6.980612e-03  -1.504092e-02  0 
 -4.667368e-03  -1.496810e-02  0 
 -2.356908e-03  -1.496944e-02  0 
 -9.242985e-03  -1.433761e-02  0 
 -7.691055e-03  -1.281604e-02  0 
 -7.839899e-03  -1.529104e-02  0 
 -7.573564e-03  -1.022850e-02  0 
 -8.442097e-03  -1.426738e-02  0 
 -7.607457e-03  -1.196483e-02  0 
 -7.168723e-03  -1.029901e-02  0 
 -6.110924e-03  -1.340234e-02  0 
 -3.910239e-03  -1.317796e-02  0 
 -5.569532e-03  -9.362556e-03  0 
 -5.548933e-03  -1.152287e-02  0 
 -3.174115e-03  -1.032790e-02  0 
 -1.603784e-03  -1.275096e-02  0 
 -7.837657e-03  -1.367858e-02  0 
 -7.516761e-03  -1.445063e-02  0 
 -8.621996e-03  -1.465625e-02  0 
 -7.279273e-03  -1.872142e-02  0 
 -6.250780e-03  -1.743408e-02  0 
 -4.497021e-03  -1.860320e-02  0 
 -5.645477e-03  -2.077634e-02  0 
 -5.116796e-03  -2.243576e-02  0 
 -3.330284e-03  -1.843524e-02  0 
 -8.328801e-03  -1.600651e-02  0 
VECTORS displacement_ITER13 FLOAT
 -8.637417e-03  -1.218149e-02  0 
 -8.629476e-03  -1.075551e-02  0 
 -8.634598e-03  -1.140221e-02  0 
 -4.109058e-03  -1.269767e-02  0 
 -6.519912e-03  -1.252612e-02  0 
 -8.064708e-03  -1.196127e-02  0 
 -7.534422e-03  -1.188356e-02  0 
 -7.007509e-03  -1.188175e-02  0 
 -8.551566e-03  -1.045091e-02  0 
 -6.060742e-03  -1.138589e-02  0 
 -5.549791e-03  -1.315055e-02  0 
 -5.508509e-03  -7.638651e-03  0 
 -7.025872e-03  -1.200370e-02  0 
 -8.179393e-03  -1.120562e-02  0 
 -8.072513e-03  -1.078150e-02  0 
 -7.845532e-03  -1.154477e-02  0 
 -7.358982e-03  -1.146045e-02  0 
 -7.708904e-03  -1.056149e-02  0 
 -7.712086e-03  -1.107268e-02  0 
 -7.195738e-03  -1.075445e-02  0 
 -6.844598e-03  -1.136856e-02  0 
 -8.236733e-03  -1.166429e-02  0 
 -5.715829e-03  -1.074464e-02  0 
 -7.424649e-03  -1.107982e-02  0 
 -7.845360e-03  -1.479043e-02  0 
 -8.095632e-03  -1.404319e-02  0 
 -7.665200e-03  -1.542192e-02  0 
 -7.855502e-03  -1.723043e-02  0 
 -6.573174e-03  -2.225330e-02  0 
 -5.477831e-03  -1.751565e-02  0 
 -8.762902e-03  -1.254388e-02  0 
VECTORS displacement_ITER14 FLOAT
 -5.763191e-03  -1.061602e-02  0 
 -5.755677e-03  -1.000774e-02  0 
 -5.760054e-03  -1.024487e-02  0 
 -3.767090e-03  -1.112848e-02  0 
 -4.907182e-03  -1.095827e-02  0 
 -5.599146e-03  -1.039423e-02  0 
 -5.482023e-03  -1.031390e-02  0 
 -5.371664e-03  -1.030965e-02  0 
 -5.679892e-03  -1.014083e-02  0 
 -3.998089e-03  -9.358291e-03  0 
 -4.607761e-03  -1.112430e-02  0 
 -5.892153e-03  -3.160391e-03  0 
 -4.773191e-03  -1.037081e-02  0 
 -5.596698e-03  -1.017386e-02  0 
 -5.567167e-03  -1.003681e-02  0 
 -5.530523e-03  -1.026019e-02  0 
 -5.441714e-03  -1.020897e-02  0 
 -5.489251e-03  -9.984417e-03  0 
 -5.496909e-03  -1.011429e-02  0 
 -5.411377e-03  -1.000120e-02  0 
 -5.345091e-03  -1.019503e-02  0 
 -5.613745e-03  -1.034278e-02  0 
 -4.552301e-03  -1.016420e-02  0 
 -5.331313e-03  -1.029657e-02  0 
 -5.394346e-03  -1.286368e-02  0 
 -5.717935e-03  -1.211259e-02  0 
 -5.846301e-03  -1.305284e-02  0 
 -5.668232e-03  -1.441510e-02  0 
 -5.796459e-03  -1.751293e-02  0 
 -5.124145e-03  -1.406358e-02  0 
 -5.947346e-03  -1.115378e-02  0 
VECTORS displacement_ITER15 FLOAT
 -1.249851e-03  -1.009921e-02  0 
 -1.243526e-03  -9.396098e-03  0 
 -1.247116e-03  -9.680341e-03  0 
 -3.634641e-03  -1.060534e-02  0 
 -2.577902e-03  -1.043703e-02  0 
 -1.038397e-03  -9.875956e-03  0 
 -8.784940e-04  -9.792403e-03  0 
 -7.297577e-04  -9.785455e-03  0 
 -1.168717e-03  -1.180020e-02  0 
 -1.139640e-03  -8.176334e-03  0 
 -3.105460e-03  -1.013785e-02  0 
 -4.788710e-03  -2.077927e-03  0 
 -1.563943e-03  -9.625434e-03  0 
 -1.049757e-03  -9.596342e-03  0 
 -1.012643e-03  -9.428559e-03  0 
 -9.535473e-04  -9.710917e-03  0 
 -8.245712e-04  -9.656278e-03  0 
 -9.041794e-04  -9.360669e-03  0 
 -9.101825e-04  -9.531048e-03  0 
 -7.804383e-04  -9.398670e-03  0 
 -6.887787e-04  -9.633945e-03  0 
 -1.070992e-03  -9.797404e-03  0 
 -2.999653e-03  -1.135084e-02  0 
 -2.169804e-03  -1.113384e-02  0 
 -9.695277e-04  -1.222244e-02  0 
 -9.851965e-04  -1.123117e-02  0 
 -1.365197e-03  -1.149982e-02  0 
 -1.034139e-03  -1.242376e-02  0 
 -2.997205e-03  -1.207090e-02  0 
 -2.678665e-03  -1.049335e-02  0 
 -1.087618e-03  -1.105791e-02  0 
VECTORS displacement_ITER16 FLOAT
 -3.862478e-03  -8.910316e-03  0 
 -3.853801e-03  -6.231747e-03  0 
 -3.859964e-03  -7.504040e-03  0 
 -5.824182e-03  -9.425076e-03  0 
 -4.985075e-03  -9.252089e-03  0 
 -2.664199e-03  -8.685594e-03  0 
 -1.513267e-03  -8.602062e-03  0 
 -3.705003e-04  -8.596645e-03  0 
 -3.776838e-03  -1.041473e-02  0 
 -4.007337e-03  -8.045090e-03  0 
 -4.375710e-03  -1.005712e-02  0 
 -1.786857e-03  -1.148824e-02  0 
 -4.470974e-03  -8.504792e-03  0 
 -2.957319e-03  -7.117308e-03  0 
 -2.734798e-03  -6.259767e-03  0 
 -2.216854e-03  -7.839887e-03  0 
 -1.135386e-03  -7.704015e-03  0 
 -1.940117e-03  -5.791225e-03  0 
 -1.934361e-03  -6.876991e-03  0 
 -7.722279e-04  -6.253662e-03  0 
 -3.220167e-06  -7.492999e-03  0 
 -3.075805e-03  -8.016754e-03  0 
 -5.331439e-03  -1.000020e-02  0 
 -4.656256e-03  -9.819438e-03  0 
 -2.611662e-03  -1.200967e-02  0 
 -2.177802e-03  -1.060820e-02  0 
 -1.378780e-03  -1.120021e-02  0 
 -1.829425e-03  -1.288162e-02  0 
 -1.594278e-03  -1.416443e-02  0 
 -6.801696e-04  -1.117159e-02  0 
 -3.137381e-03  -1.005166e-02  0 
VECTORS displacement_ITER17 FLOAT
 -6.356436e-04  -8.675704e-03  0 
 -6.265259e-04  -8.121028e-03  0 
 -6.325095e-04  -8.329402e-03  0 
 -2.202845e-03  -9.194498e-03  0 
 -1.558691e-03  -9.021369e-03  0 
 -5.017297e-04  -8.445645e-03  0 
 -4.184070e-04  -8.358565e-03  0 
 -3.450449e-04  -8.350620e-03  0 
 -5.508256e-04  -9.982726e-03  0 
 -6.147528e-04  -8.406954e-03  0 
 -1.581613e-03  -9.771223e-03  0 
 -1.885721e-03  -7.204088e-03  0 
 -1.000636e-03  -8.702038e-03  0 
 -4.886259e-04  -8.266018e-03  0 
 -4.652555e-04  -8.151036e-03  0 
 -4.437953e-04  -8.331658e-03  0 
 -3.889400e-04  -8.279960e-03  0 
 -4.102489e-04  -8.111873e-03  0 
 -4.181917e-04  -8.211213e-03  0 
 -3.687134e-04  -8.113204e-03  0 
 -3.300591e-04  -8.269814e-03  0 
 -5.031151e-04  -8.414899e-03  0 
 -1.835958e-03  -9.616735e-03  0 
 -1.306503e-03  -9.463973e-03  0 
 -3.283210e-04  -1.078175e-02  0 
 -4.722098e-04  -9.796415e-03  0 
 -6.169881e-04  -1.014398e-02  0 
 -4.661857e-04  -1.130270e-02  0 
 -8.829675e-04  -1.267371e-02  0 
 -4.693754e-04  -1.022711e-02  0 
 -5.480340e-04  -9.520396e-03  0 
VECTORS displacement_ITER18 FLOAT
 -6.406038e-04  -9.370927e-03  0 
 -6.328181e-04  -8.859508e-03  0 
 -6.378510e-04  -9.046195e-03  0 
 -1.526503e-03  -9.888968e-03  0 
 -1.221830e-03  -9.716631e-03  0 
 -5.282354e-04  -9.141581e-03  0 
 -4.661733e-04  -9.055154e-03  0 
 -4.155993e-04  -9.046279e-03  0 
 -5.569434e-04  -1.033487e-02  0 
 -3.815895e-04  -8.782694e-03  0 
 -1.599953e-03  -1.009813e-02  0 
 -3.227178e-03  -5.096794e-03  0 
 -7.552697e-04  -9.339791e-03  0 
 -5.097914e-04  -8.990103e-03  0 
 -4.909829e-04  -8.890259e-03  0 
 -4.783968e-04  -9.042968e-03  0 
 -4.438647e-04  -8.994038e-03  0 
 -4.505511e-04  -8.859663e-03  0 
 -4.583656e-04  -8.939900e-03  0 
 -4.303960e-04  -8.852957e-03  0 
 -4.070519e-04  -8.988695e-03  0 
 -5.216559e-04  -9.123519e-03  0 
 -1.378606e-03  -1.004715e-02  0 
 -1.099550e-03  -9.947200e-03  0 
 -3.246249e-04  -1.106745e-02  0 
 -4.529954e-04  -1.019354e-02  0 
 -7.163997e-04  -1.029377e-02  0 
 -4.801456e-04  -1.126223e-02  0 
 -1.672543e-03  -1.129967e-02  0 
 -1.382284e-03  -9.477033e-03  0 
 -5.550024e-04  -9.991020e-03  0 
VECTORS displacement_ITER19 FLOAT
 -3.636490e-03  -8.470205e-03  0 
 -3.628792e-03  -5.930569e-03  0 
 -3.634040e-03  -7.132631e-03  0 
 -2.751319e-03  -8.989883e-03  0 
 -3.336252e-03  -8.816191e-03  0 
 -2.508039e-03  -8.244684e-03  0 
 -1.425865e-03  -8.161566e-03  0 
 -3.548385e-04  -8.153696e-03  0 
 -3.552554e-03  -8.553746e-03  0 
 -2.884477e-03  -7.607145e-03  0 
 -3.054686e-03  -9.247213e-03  0 
 -2.647853e-03  -7.434937e-03  0 
 -3.391271e-03  -8.141639e-03  0 
 -2.781985e-03  -6.767559e-03  0 
 -2.573305e-03  -5.958641e-03  0 
 -2.086164e-03  -7.447533e-03  0 
 -1.070704e-03  -7.318392e-03  0 
 -1.826195e-03  -5.516904e-03  0 
 -1.820892e-03  -6.540054e-03  0 
 -7.291776e-04  -5.950794e-03  0 
 -9.601970e-06  -7.121307e-03  0 
 -2.892909e-03  -7.617731e-03  0 
 -3.178757e-03  -8.456243e-03  0 
 -3.549583e-03  -8.498800e-03  0 
 -2.273630e-03  -1.068015e-02  0 
 -1.940765e-03  -9.593182e-03  0 
 -1.238648e-03  -9.844853e-03  0 
 -1.583549e-03  -1.127449e-02  0 
 -2.006986e-03  -1.111566e-02  0 
 -1.291352e-03  -8.755513e-03  0 
 -2.995895e-03  -8.961498e-03  0 
VECTORS displacement_ITER20 FLOAT
 -1.695927e-03  -9.504226e-03  0 
 -1.688978e-03  -8.044546e-03  0 
 -1.693479e-03  -8.706409e-03  0 
 -5.962970e-04  -1.001872e-02  0 
 -1.283931e-03  -9.847456e-03  0 
 -1.106777e-03  -9.279633e-03  0 
 -5.648832e-04  -9.197168e-03  0 
 -3.490582e-05  -9.189849e-03  0 
 -1.614737e-03  -9.470540e-03  0 
 -7.468940e-04  -8.574001e-03  0 
 -1.410899e-03  -9.923875e-03  0 
 -2.972475e-03  -4.511437e-03  0 
 -1.237146e-03  -9.267492e-03  0 
 -1.226876e-03  -8.506130e-03  0 
 -1.119416e-03  -8.073875e-03  0 
 -8.827907e-04  -8.854050e-03  0 
 -3.866268e-04  -8.769419e-03  0 
 -7.467897e-04  -7.849760e-03  0 
 -7.480849e-04  -8.373752e-03  0 
 -2.190448e-04  -8.051432e-03  0 
 1.318155e-04  -8.675437e-03  0 
 -1.284677e-03  -8.975098e-03  0 
 -1.089273e-03  -9.405355e-03  0 
 -1.538789e-03  -9.462354e-03  0 
 -7.751833e-04  -1.097011e-02  0 
 -7.115110e-04  -1.015467e-02  0 
 -4.937641e-04  -1.017986e-02  0 
 -4.842034e-04  -1.118067e-02  0 
 -1.449598e-03  -1.040061e-02  0 
 -1.203455e-03  -8.853867e-03  0 
 -1.335008e-03  -9.749999e-03  0 
VECTORS displacement_ITER21 FLOAT
 -3.592535e-03  -8.175437e-03  0 
 -3.584295e-03  -6.367073e-03  0 
 -3.590014e-03  -7.203174e-03  0 
 -1.773936e-03  -8.690606e-03  0 
 -2.821332e-03  -8.518898e-03  0 
 -2.829286e-03  -7.950660e-03  0 
 -2.111003e-03  -7.868585e-03  0 
 -1.402281e-03  -7.862139e-03  0 
 -3.510429e-03  -7.784788e-03  0 
 -2.367002e-03  -7.775437e-03  0 
 -2.328945e-03  -9.127846e-03  0 
 -2.136459e-03  -7.008580e-03  0 
 -2.995925e-03  -8.030395e-03  0 
 -2.998866e-03  -6.948728e-03  0 
 -2.858233e-03  -6.394105e-03  0 
 -2.540797e-03  -7.404079e-03  0 
 -1.874761e-03  -7.304194e-03  0 
 -2.363519e-03  -6.097652e-03  0 
 -2.363179e-03  -6.784372e-03  0 
 -1.649973e-03  -6.373685e-03  0 
 -1.177902e-03  -7.175593e-03  0 
 -3.074058e-03  -7.541587e-03  0 
 -2.499579e-03  -7.797167e-03  0 
 -3.212795e-03  -7.911100e-03  0 
 -2.481630e-03  -1.002278e-02  0 
 -2.424699e-03  -9.156443e-03  0 
 -1.788765e-03  -9.566075e-03  0 
 -2.053165e-03  -1.092699e-02  0 
 -1.307014e-03  -1.251316e-02  0 
 -8.065635e-04  -9.708813e-03  0 
 -3.207014e-03  -8.466287e-03  0 
VECTORS displacement_ITER22 FLOAT
 -2.112392e-03  -8.510541e-03  0 
 -2.105873e-03  -7.448658e-03  0 
 -2.110707e-03  -7.911213e-03  0 
 -2.386515e-03  -9.014777e-03  0 
 -2.377411e-03  -8.847575e-03  0 
 -1.722949e-03  -8.285893e-03  0 
 -1.380010e-03  -8.203028e-03  0 
 -1.047992e-03  -8.196103e-03  0 
 -2.033100e-03  -9.148011e-03  0 
 -1.511160e-03  -7.747540e-03  0 
 -2.495678e-03  -8.986690e-03  0 
 -3.464805e-03  -4.698014e-03  0 
 -1.999745e-03  -8.301826e-03  0 
 -1.786034e-03  -7.771325e-03  0 
 -1.715861e-03  -7.477863e-03  0 
 -1.571661e-03  -7.996724e-03  0 
 -1.266636e-03  -7.927418e-03  0 
 -1.481058e-03  -7.333128e-03  0 
 -1.484841e-03  -7.673477e-03  0 
 -1.162897e-03  -7.448975e-03  0 
 -9.475880e-04  -7.870228e-03  0 
 -1.824260e-03  -8.100359e-03  0 
 -2.427863e-03  -8.944017e-03  0 
 -2.372402e-03  -8.887468e-03  0 
 -1.502809e-03  -1.002849e-02  0 
 -1.456432e-03  -9.162602e-03  0 
 -1.181702e-03  -9.245842e-03  0 
 -1.260857e-03  -1.032116e-02  0 
 -1.105103e-03  -1.091307e-02  0 
 -9.477054e-04  -8.885883e-03  0 
 -1.841835e-03  -8.958929e-03  0 
VECTORS displacement_ITER23 FLOAT
 -1.501272e-03  -7.954582e-03  0 
 -1.495395e-03  -6.426727e-03  0 
 -1.499980e-03  -7.122755e-03  0 
 -2.890346e-03  -8.450075e-03  0 
 -2.318005e-03  -8.285832e-03  0 
 -8.779994e-04  -7.731176e-03  0 
 -3.015073e-04  -7.647221e-03  0 
 2.615597e-04  -7.636975e-03  0 
 -1.423919e-03  -9.137328e-03  0 
 -1.341185e-03  -7.038150e-03  0 
 -2.500654e-03  -8.351573e-03  0 
 -2.987199e-03  -5.196337e-03  0 
 -1.760464e-03  -7.627194e-03  0 
 -1.008581e-03  -6.912162e-03  0 
 -8.950678e-04  -6.456055e-03  0 
 -6.410886e-04  -7.281558e-03  0 
 -1.115310e-04  -7.193311e-03  0 
 -4.978771e-04  -6.217674e-03  0 
 -4.980445e-04  -6.774375e-03  0 
 6.773793e-05  -6.436266e-03  0 
 4.401192e-04  -7.091048e-03  0 
 -1.069524e-03  -7.405731e-03  0 
 -2.566740e-03  -8.818413e-03  0 
 -2.101181e-03  -8.671583e-03  0 
 -8.355858e-04  -9.628111e-03  0 
 -5.185345e-04  -8.598158e-03  0 
 -1.898530e-04  -8.465373e-03  0 
 -3.703090e-04  -9.572560e-03  0 
 -1.021891e-03  -8.751904e-03  0 
 -7.636040e-04  -7.063562e-03  0 
 -1.057464e-03  -8.571989e-03  0 
VECTORS displacement_ITER24 FLOAT
 -2.094724e-03  -7.673432e-03  0 
 -2.089263e-03  -5.724616e-03  0 
 -2.094040e-03  -6.632181e-03  0 
 -2.570981e-03  -8.161608e-03  0 
 -2.451994e-03  -7.999636e-03  0 
 -1.260009e-03  -7.452922e-03  0 
 -4.692937e-04  -7.370208e-03  0 
 3.081170e-04  -7.359260e-03  0 
 -2.017868e-03  -8.393221e-03  0 
 -1.729067e-03  -7.071740e-03  0 
 -2.301669e-03  -8.281274e-03  0 
 -2.119963e-03  -6.825405e-03  0 
 -2.181410e-03  -7.386092e-03  0 
 -1.451845e-03  -6.356817e-03  0 
 -1.298515e-03  -5.752305e-03  0 
 -9.450935e-04  -6.857278e-03  0 
 -2.092184e-04  -6.752219e-03  0 
 -7.531463e-04  -5.427272e-03  0 
 -7.504536e-04  -6.181719e-03  0 
 3.884457e-05  -5.738754e-03  0 
 5.572762e-04  -6.609777e-03  0 
 -1.533541e-03  -7.000017e-03  0 
 -2.539629e-03  -8.177926e-03  0 
 -2.408193e-03  -8.102772e-03  0 
 -1.275909e-03  -9.536219e-03  0 
 -8.463793e-04  -8.429532e-03  0 
 -2.499954e-04  -8.361903e-03  0 
 -6.552323e-04  -9.738762e-03  0 
 -8.396252e-04  -9.302232e-03  0 
 -3.762845e-04  -7.066624e-03  0 
 -1.611498e-03  -8.236608e-03  0 
VECTORS displacement_ITER25 FLOAT
 -2.395261e-03  -7.363871e-03  0 
 -2.391018e-03  -5.758824e-03  0 
 -2.395354e-03  -6.495353e-03  0 
 -2.059771e-03  -7.838452e-03  0 
 -2.339050e-03  -7.682143e-03  0 
 -1.731800e-03  -7.146536e-03  0 
 -1.109989e-03  -7.065027e-03  0 
 -5.011775e-04  -7.053277e-03  0 
 -2.320362e-03  -7.663138e-03  0 
 -1.756015e-03  -6.831109e-03  0 
 -2.403906e-03  -7.931165e-03  0 
 -3.222544e-03  -5.008958e-03  0 
 -2.219026e-03  -7.172062e-03  0 
 -1.875446e-03  -6.272037e-03  0 
 -1.753949e-03  -5.785978e-03  0 
 -1.478963e-03  -6.667993e-03  0 
 -9.048773e-04  -6.576851e-03  0 
 -1.325806e-03  -5.528645e-03  0 
 -1.324978e-03  -6.126726e-03  0 
 -7.113250e-04  -5.768248e-03  0 
 -3.084111e-04  -6.466719e-03  0 
 -1.940336e-03  -6.794831e-03  0 
 -2.283824e-03  -7.546512e-03  0 
 -2.449662e-03  -7.533085e-03  0 
 -1.848068e-03  -9.202786e-03  0 
 -1.484837e-03  -8.139397e-03  0 
 -8.816878e-04  -8.176318e-03  0 
 -1.375262e-03  -9.736186e-03  0 
 -8.531565e-04  -1.046821e-02  0 
 -3.047544e-04  -7.511634e-03  0 
 -2.136412e-03  -7.862154e-03  0 
VECTORS displacement_ITER26 FLOAT
 -1.030403e-03  -7.183730e-03  0 
 -1.025933e-03  -6.183368e-03  0 
 -1.030138e-03  -6.617521e-03  0 
 -1.109980e-03  -7.647492e-03  0 
 -1.173798e-03  -7.495709e-03  0 
 -6.681721e-04  -6.967188e-03  0 
 -3.488108e-04  -6.884937e-03  0 
 -4.379299e-05  -6.871499e-03  0 
 -9.593071e-04  -7.673921e-03  0 
 -4.699296e-04  -6.582319e-03  0 
 -1.514042e-03  -7.542195e-03  0 
 -3.190300e-03  -3.112055e-03  0 
 -8.931094e-04  -7.026530e-03  0 
 -7.257193e-04  -6.486291e-03  0 
 -6.608453e-04  -6.211131e-03  0 
 -5.257846e-04  -6.696310e-03  0 
 -2.424536e-04  -6.629514e-03  0 
 -4.424122e-04  -6.076195e-03  0 
 -4.447325e-04  -6.394520e-03  0 
 -1.466933e-04  -6.187287e-03  0 
 4.845370e-05  -6.576824e-03  0 
 -7.610722e-04  -6.795703e-03  0 
 -1.193233e-03  -7.524184e-03  0 
 -1.206309e-03  -7.474404e-03  0 
 -8.627803e-04  -8.811715e-03  0 
 -5.780395e-04  -7.802097e-03  0 
 -1.773094e-04  -7.765796e-03  0 
 -5.762989e-04  -9.254422e-03  0 
 8.832003e-06  -1.018478e-02  0 
 3.693890e-04  -7.233130e-03  0 
 -9.630058e-04  -7.689834e-03  0 
VECTORS displacement_ITER27 FLOAT
 -1.854942e-03  -6.584778e-03  0 
 -1.849802e-03  -5.156044e-03  0 
 -1.854510e-03  -5.804618e-03  0 
 -2.188371e-03  -7.043011e-03  0 
 -2.121176e-03  -6.892854e-03  0 