# vtk DataFile Version 3.1
this is an vtk file created by FEMAC
ASCII
DATASET UNSTRUCTURED_GRID
POINTS 31 FLOAT
5.000000 1.000000 0.000000
4.500000 1.000000 0.000000
4.750000 1.000000 0.000000
5.000000 0.500000 0.000000
5.000000 0.750000 0.000000
5.000000 1.250000 0.000000
5.000000 1.500000 0.000000
5.250000 1.000000 0.000000
5.500000 1.000000 0.000000
5.750000 1.000000 0.000000
4.787596 0.660045 0.000000
4.638134 0.825570 0.000000
4.502535 0.594871 0.000000
4.746177 0.372389 0.000000
4.835146 0.847123 0.000000
4.810944 1.214033 0.000000
4.789602 1.627399 0.000000
4.391405 1.203564 0.000000
4.627460 1.174425 0.000000
4.628796 1.390176 0.000000
4.544074 1.619719 0.000000
4.845868 1.396322 0.000000
5.214699 0.660302 0.000000
5.371728 0.825957 0.000000
5.167285 0.847252 0.000000
5.528256 1.447447 0.000000
5.195000 1.255000 0.000000
5.378219 1.169567 0.000000
5.565925 1.242859 0.000000
5.323754 1.413341 0.000000
5.717271 1.453287 0.000000
CELLS 42 168 
3 10  3  4
3 12 10 11
3 10 13  3
3 10 12 13
3 11  2  1
3 2 14  0
3 4 14 10
3 14  4  0
3 11 14  2
3 11 10 14
3 2 18  1
3 19 18 15
3 15 18  2
3 19 16 20
3 0 15  2
3 0  5 15
3 1 18 17
3 17 18 19
3 19 21 16
3 21 19 15
3 21  6 16
3 21  5  6
3 15  5 21
3 3 22  4
3 7 23  8
3 4 24  0
3 24  7  0
3 24  4 22
3 24 23  7
3 22 23 24
3 26  6  5
3 27  7  8
3 9 28  8
3 27 29 26
3 27 26  7
3 29  6 26
3 0 26  5
3 0  7 26
3 27  8 28
3 25 29 28
3 30 25 28
3 27 28 29
CELL_TYPES 42
5 5 5 5 5 5 5 5 5 5 5 5 5 5 5 5 5 5 5 5 5 5 5 5 5 5 5 5 5 5 5 5 5 5 5 5 5 5 5 5 5 5 
POINT_DATA 31
VECTORS displacement_ITER1 FLOAT
 -1.188023e-01  -3.255551e-01  0 
 -1.187125e-01  -2.800632e-01  0 
 -1.187610e-01  -3.028376e-01  0 
 -1.641454e-01  -3.255356e-01  0 
 -1.414615e-01  -3.255396e-01  0 
 -9.826861e-02  -3.255667e-01  0 
 -7.772868e-02  -3.255649e-01  0 
 -1.188280e-01  -3.461416e-01  0 
 -1.188468e-01  -3.667260e-01  0 
 -1.188538e-01  -3.873204e-01  0 
 -1.496273e-01  -3.062639e-01  0 
 -1.346105e-01  -2.926918e-01  0 
 -1.555312e-01  -2.804033e-01  0 
 -1.757144e-01  -3.025107e-01  0 
 -1.326581e-01  -3.105897e-01  0 
 -1.015780e-01  -3.057138e-01  0 
 -7.227539e-02  -2.967351e-01  0 
 -9.473645e-02  -2.602896e-01  0 
 -1.028988e-01  -2.883505e-01  0 
 -8.547273e-02  -2.816148e-01  0 
 -7.506511e-02  -2.663395e-01  0 
 -8.660204e-02  -3.064724e-01  0 
 -1.496942e-01  -3.476288e-01  0 
 -1.343076e-01  -3.604493e-01  0 
 -1.319455e-01  -3.409727e-01  0 
 -8.203123e-02  -3.690341e-01  0 
 -9.785547e-02  -3.415974e-01  0 
 -1.048866e-01  -3.566859e-01  0 
 -9.885843e-02  -3.721425e-01  0 
 -8.483336e-02  -3.521984e-01  0 
 -8.155802e-02  -3.845890e-01  0 
VECTORS displacement_ITER2 FLOAT
 -7.320380e-02  -1.669438e-01  0 
 -7.306429e-02  -1.554969e-01  0 
 -7.314530e-02  -1.612790e-01  0 
 -8.443214e-02  -1.669228e-01  0 
 -7.880772e-02  -1.669358e-01  0 
 -6.520989e-02  -1.669314e-01  0 
 -5.718527e-02  -1.669034e-01  0 
 -7.323694e-02  -1.749789e-01  0 
 -7.327466e-02  -1.830306e-01  0 
 -7.329965e-02  -1.911272e-01  0 
 -8.083904e-02  -1.621485e-01  0 
 -7.711534e-02  -1.587678e-01  0 
 -8.228797e-02  -1.557531e-01  0 
 -8.728064e-02  -1.612326e-01  0 
 -7.662915e-02  -1.632324e-01  0 
 -6.729594e-02  -1.588578e-01  0 
 -3.877258e-02  -1.399458e-01  0 
 -5.512616e-02  -1.373639e-01  0 
 -6.521285e-02  -1.521249e-01  0 
 -5.568345e-02  -1.380402e-01  0 
 -2.872867e-02  -1.046013e-01  0 
 -5.982887e-02  -1.568909e-01  0 
 -8.071348e-02  -1.769936e-01  0 
 -7.651417e-02  -1.819721e-01  0 
 -7.598302e-02  -1.735684e-01  0 
 -5.890729e-02  -1.838870e-01  0 
 -6.505760e-02  -1.731870e-01  0 
 -6.780562e-02  -1.790835e-01  0 
 -6.545440e-02  -1.851274e-01  0 
 -5.997708e-02  -1.773236e-01  0 
 -5.874388e-02  -1.899391e-01  0 
VECTORS displacement_ITER3 FLOAT
 -4.602263e-02  -5.167572e-02  0 
 -4.586279e-02  -4.729461e-02  0 
 -4.594010e-02  -4.954671e-02  0 
 -5.028541e-02  -5.175855e-02  0 
 -4.811798e-02  -5.173474e-02  0 
 -3.862658e-02  -5.160696e-02  0 
 -3.118597e-02  -5.150976e-02  0 
 -4.607897e-02  -5.908872e-02  0 
 -4.614368e-02  -6.655880e-02  0 
 -4.617976e-02  -7.408546e-02  0 
 -4.889152e-02  -4.990572e-02  0 
 -4.745774e-02  -4.860036e-02  0 
 -4.944791e-02  -4.743812e-02  0 
 -5.138793e-02  -4.955650e-02  0 
 -4.728038e-02  -5.031552e-02  0 
 -3.938292e-02  -4.883369e-02  0 
 -3.096098e-02  -4.478549e-02  0 
 -3.372525e-02  -3.865980e-02  0 
 -3.918621e-02  -4.661692e-02  0 
 -3.212199e-02  -4.269907e-02  0 
 -3.310949e-02  -4.594695e-02  0 
 -3.385811e-02  -4.741219e-02  0 
 -5.040869e-02  -6.102747e-02  0 
 -4.873058e-02  -6.539931e-02  0 
 -4.741364e-02  -5.740471e-02  0 
 -3.278144e-02  -6.735937e-02  0 
 -3.850949e-02  -5.740150e-02  0 
 -4.105859e-02  -6.287893e-02  0 
 -3.887301e-02  -6.850106e-02  0 
 -3.378722e-02  -6.124703e-02  0 
 -3.261314e-02  -7.300170e-02  0 
VECTORS displacement_ITER4 FLOAT
 -1.667249e-02  -1.918278e-02  0 
 -1.649527e-02  -2.000950e-02  0 
 -1.657088e-02  -1.965217e-02  0 
 -1.580452e-02  -1.934021e-02  0 
 -1.618092e-02  -1.928942e-02  0 
 -1.406375e-02  -1.909235e-02  0 
 -1.140694e-02  -1.896866e-02  0 
 -1.674000e-02  -2.180008e-02  0 
 -1.683071e-02  -2.450820e-02  0 
 -1.689495e-02  -2.731240e-02  0 
 -1.603009e-02  -1.964108e-02  0 
 -1.627686e-02  -1.986080e-02  0 
 -1.593459e-02  -2.005723e-02  0 
 -1.562826e-02  -1.970805e-02  0 
 -1.633134e-02  -1.955233e-02  0 
 -1.432634e-02  -1.876439e-02  0 
 -1.182096e-02  -1.583742e-02  0 
 -1.202224e-02  -1.756298e-02  0 
 -1.409619e-02  -1.892563e-02  0 
 -1.167541e-02  -1.693503e-02  0 
 -1.304955e-02  -1.880108e-02  0 
 -1.248759e-02  -1.765365e-02  0 
 -1.663783e-02  -2.424154e-02  0 
 -1.627748e-02  -2.616183e-02  0 
 -1.600446e-02  -2.196258e-02  0 
 -1.200207e-02  -2.474888e-02  0 
 -1.405063e-02  -2.115689e-02  0 
 -1.496170e-02  -2.313213e-02  0 
 -1.416704e-02  -2.517411e-02  0 
 -1.234692e-02  -2.255562e-02  0 
 -1.194096e-02  -2.674640e-02  0 
VECTORS displacement_ITER5 FLOAT
 -4.942155e-03  -1.204911e-02  0 
 -4.748391e-03  -9.128768e-03  0 
 -4.832173e-03  -1.064981e-02  0 
 -7.787589e-03  -1.219597e-02  0 
 -6.303558e-03  -1.214908e-02  0 
 -4.840674e-03  -1.196993e-02  0 
 -4.692795e-03  -1.186017e-02  0 
 -5.015761e-03  -1.217832e-02  0 
 -5.103730e-03  -1.238131e-02  0 
 -5.157892e-03  -1.267928e-02  0 
 -6.824599e-03  -1.092196e-02  0 
 -5.837144e-03  -1.002611e-02  0 
 -7.216186e-03  -9.209000e-03  0 
 -8.566833e-03  -1.068112e-02  0 
 -5.734072e-03  -1.118900e-02  0 
 -4.208130e-03  -1.102627e-02  0 
 -4.412267e-03  -7.445347e-03  0 
 -2.221831e-03  -8.987335e-03  0 
 -3.581358e-03  -1.004468e-02  0 
 -2.805612e-03  -9.052280e-03  0 
 -5.568477e-03  -1.103075e-02  0 
 -4.303555e-03  -1.018165e-02  0 
 -6.132297e-03  -1.550769e-02  0 
 -4.484884e-03  -1.597602e-02  0 
 -4.799532e-03  -1.369170e-02  0 
 -4.747443e-03  -1.234898e-02  0 
 -4.873974e-03  -1.207975e-02  0 
 -4.935536e-03  -1.222716e-02  0 
 -4.878496e-03  -1.239158e-02  0 
 -4.757401e-03  -1.218831e-02  0 
 -4.742672e-03  -1.247522e-02  0 
VECTORS displacement_ITER6 FLOAT
 -3.037602e-03  -8.390184e-03  0 
 -2.838631e-03  -5.522903e-03  0 
 -2.925852e-03  -7.006979e-03  0 
 -5.856925e-03  -8.526637e-03  0 
 -4.383155e-03  -8.489757e-03  0 
 -3.018703e-03  -8.310875e-03  0 
 -2.946633e-03  -8.209872e-03  0 
 -3.115381e-03  -8.443873e-03  0 
 -3.198480e-03  -8.559657e-03  0 
 -3.243487e-03  -8.763766e-03  0 
 -4.902025e-03  -7.275453e-03  0 
 -3.921222e-03  -6.390508e-03  0 
 -5.279967e-03  -5.598159e-03  0 
 -6.601421e-03  -7.053723e-03  0 
 -3.819625e-03  -7.541225e-03  0 
 -2.865465e-03  -7.428610e-03  0 
 -2.686107e-03  -7.188691e-03  0 
 -3.158696e-03  -5.688773e-03  0 
 -2.887453e-03  -6.476362e-03  0 
 -2.806668e-03  -6.843268e-03  0 
 -2.809200e-03  -6.620948e-03  0 
 -2.895214e-03  -7.582848e-03  0 
 -3.574091e-03  -1.099654e-02  0 
 -1.508555e-03  -1.200074e-02  0 
 -2.579907e-03  -9.943744e-03  0 
 -2.996605e-03  -8.504861e-03  0 
 -3.052581e-03  -8.354330e-03  0 
 -3.096136e-03  -8.446976e-03  0 
 -3.076769e-03  -8.545972e-03  0 
 -2.998362e-03  -8.397463e-03  0 
 -3.000992e-03  -8.582021e-03  0 
VECTORS displacement_ITER7 FLOAT
 -2.868782e-03  -6.896032e-03  0 
 -2.673042e-03  -5.542040e-03  0 
 -2.759970e-03  -6.284354e-03  0 
 -4.164529e-03  -7.066598e-03  0 
 -3.449084e-03  -7.002775e-03  0 
 -2.550791e-03  -6.808720e-03  0 
 -2.175044e-03  -6.702881e-03  0 
 -2.945329e-03  -7.241048e-03  0 
 -3.023699e-03  -7.646614e-03  0 
 -3.062210e-03  -8.130054e-03  0 
 -3.687313e-03  -6.433524e-03  0 
 -3.224132e-03  -6.009264e-03  0 
 -3.865174e-03  -5.628787e-03  0 
 -4.516924e-03  -6.331285e-03  0 
 -3.183255e-03  -6.554890e-03  0 
 -2.453094e-03  -6.339832e-03  0 
 -1.791249e-03  -5.450646e-03  0 
 -2.160370e-03  -5.213567e-03  0 
 -2.377654e-03  -5.853053e-03  0 
 -1.941332e-03  -5.665809e-03  0 
 -1.780058e-03  -5.624290e-03  0 
 -2.231264e-03  -6.191618e-03  0 
 -2.239004e-03  -8.986044e-03  0 
 -7.864511e-04  -1.007155e-02  0 
 -2.043597e-03  -8.369562e-03  0 
 -2.288303e-03  -7.646858e-03  0 
 -2.581135e-03  -7.085002e-03  0 
 -2.727858e-03  -7.394729e-03  0 
 -2.625003e-03  -7.715416e-03  0 
 -2.342071e-03  -7.272033e-03  0 
 -2.277228e-03  -7.970180e-03  0 
VECTORS displacement_ITER8 FLOAT
 -2.677284e-03  -6.609919e-03  0 
 -2.487937e-03  -5.355439e-03  0 
 -2.569245e-03  -6.034500e-03  0 
 -3.913893e-03  -6.782772e-03  0 
 -3.223085e-03  -6.719675e-03  0 
 -2.413758e-03  -6.524268e-03  0 
 -2.092681e-03  -6.417733e-03  0 
 -2.752647e-03  -6.898961e-03  0 
 -2.836377e-03  -7.253635e-03  0 
 -2.882063e-03  -7.685597e-03  0 
 -3.451521e-03  -6.175320e-03  0 
 -3.005796e-03  -5.773905e-03  0 
 -3.633695e-03  -5.376747e-03  0 
 -4.280408e-03  -6.062484e-03  0 
 -2.969067e-03  -6.292111e-03  0 
 -2.379962e-03  -6.057618e-03  0 
 -1.721519e-03  -5.401028e-03  0 
 -2.303067e-03  -4.962926e-03  0 
 -2.363840e-03  -5.590828e-03  0 
 -2.023931e-03  -5.469948e-03  0 
 -1.600374e-03  -5.100074e-03  0 
 -2.177016e-03  -5.986587e-03  0 
 -1.938506e-03  -8.604224e-03  0 
 -5.910039e-04  -9.553645e-03  0 
 -1.845909e-03  -8.024948e-03  0 
 -2.185556e-03  -7.245470e-03  0 
 -2.444953e-03  -6.759076e-03  0 
 -2.569350e-03  -7.025355e-03  0 
 -2.475185e-03  -7.310387e-03  0 
 -2.238014e-03  -6.924747e-03  0 
 -2.170172e-03  -7.510464e-03  0 
VECTORS displacement_ITER9 FLOAT
 -2.660421e-03  -6.395563e-03  0 
 -2.480895e-03  -5.192069e-03  0 
 -2.553723e-03  -5.841720e-03  0 
 -3.851563e-03  -6.568023e-03  0 
 -3.186537e-03  -6.509134e-03  0 
 -2.392746e-03  -6.311179e-03  0 
 -2.066336e-03  -6.213819e-03  0 
 -2.738915e-03  -6.694322e-03  0 
 -2.816155e-03  -7.043468e-03  0 
 -2.855789e-03  -7.439877e-03  0 
 -3.407657e-03  -5.985652e-03  0 
 -2.967925e-03  -5.591470e-03  0 
 -3.584443e-03  -5.223479e-03  0 
 -4.202915e-03  -5.876672e-03  0 
 -2.937805e-03  -6.093227e-03  0 
 -2.345426e-03  -5.891300e-03  0 
 -1.752665e-03  -5.589446e-03  0 
 -2.194734e-03  -4.850831e-03  0 
 -2.309871e-03  -5.449439e-03  0 
 -1.981514e-03  -5.332157e-03  0 
 -1.641505e-03  -4.999678e-03  0 
 -2.115855e-03  -5.876585e-03  0 
 -1.966873e-03  -8.269273e-03  0 
 -4.612523e-04  -9.497393e-03  0 
 -1.794857e-03  -7.797869e-03  0 
 -2.162721e-03  -7.039487e-03  0 
 -2.422291e-03  -6.546047e-03  0 
 -2.556520e-03  -6.821215e-03  0 
 -2.469983e-03  -7.105864e-03  0 
 -2.212790e-03  -6.705697e-03  0 
 -2.149844e-03  -7.354193e-03  0 
VECTORS displacement_ITER10 FLOAT
 -2.667064e-03  -6.347565e-03  0 
 -2.488492e-03  -5.165563e-03  0 
 -2.560293e-03  -5.802478e-03  0 
 -3.837576e-03  -6.517627e-03  0 
 -3.184787e-03  -6.461311e-03  0 
 -2.388228e-03  -6.261458e-03  0 
 -2.047013e-03  -6.161181e-03  0 
 -2.744247e-03  -6.655535e-03  0 
 -2.820870e-03  -7.013819e-03  0 
 -2.860678e-03  -7.420543e-03  0 
 -3.402854e-03  -5.946683e-03  0 
 -2.967611e-03  -5.556099e-03  0 
 -3.578482e-03  -5.193073e-03  0 
 -4.183574e-03  -5.840858e-03  0 
 -2.939045e-03  -6.051347e-03  0 
 -2.343026e-03  -5.842128e-03  0 
 -1.730958e-03  -5.610930e-03  0 
 -2.140183e-03  -4.789935e-03  0 
 -2.297073e-03  -5.417187e-03  0 
 -2.001281e-03  -5.293357e-03  0 
 -1.617166e-03  -4.966237e-03  0 
 -2.107687e-03  -5.842371e-03  0 
 -1.948882e-03  -8.200150e-03  0 
 -4.687072e-04  -9.459569e-03  0 
 -1.800791e-03  -7.748558e-03  0 
 -2.153102e-03  -7.010868e-03  0 
 -2.418601e-03  -6.506868e-03  0 
 -2.555121e-03  -6.787550e-03  0 
 -2.465589e-03  -7.078059e-03  0 
 -2.203395e-03  -6.671413e-03  0 
 -2.140398e-03  -7.333752e-03  0 
VECTORS displacement_ITER11 FLOAT
 -2.655836e-03  -6.346178e-03  0 
 -2.477192e-03  -5.156646e-03  0 
 -2.549047e-03  -5.797967e-03  0 
 -3.832772e-03  -6.516689e-03  0 
 -3.176613e-03  -6.460082e-03  0 
 -2.382426e-03  -6.260429e-03  0 
 -2.047995e-03  -6.160213e-03  0 
 -2.733243e-03  -6.649011e-03  0 
 -2.810024e-03  -7.002259e-03  0 
 -2.849974e-03  -7.401998e-03  0 
 -3.395809e-03  -5.942663e-03  0 
 -2.958363e-03  -5.550363e-03  0 
 -3.572139e-03  -5.186459e-03  0 
 -4.178729e-03  -5.836397e-03  0 
 -2.929615e-03  -6.047944e-03  0 
 -2.336715e-03  -5.832861e-03  0 
 -1.730691e-03  -5.527269e-03  0 
 -2.132050e-03  -4.766215e-03  0 
 -2.289771e-03  -5.404285e-03  0 
 -1.994540e-03  -5.273005e-03  0 
 -1.616615e-03  -4.944526e-03  0 
 -2.110924e-03  -5.818805e-03  0 
 -1.936147e-03  -8.190778e-03  0 
 -4.622530e-04  -9.458742e-03  0 
 -1.792072e-03  -7.744161e-03  0 
 -2.151325e-03  -6.997790e-03  0 
 -2.412725e-03  -6.501268e-03  0 
 -2.547340e-03  -6.778689e-03  0 
 -2.458401e-03  -7.066406e-03  0 
 -2.199596e-03  -6.664988e-03  0 
 -2.141136e-03  -7.315428e-03  0 
VECTORS displacement_ITER12 FLOAT
 -2.655331e-03  -6.345431e-03  0 
 -2.476378e-03  -5.153303e-03  0 
 -2.548546e-03  -5.796585e-03  0 
 -3.833719e-03  -6.516093e-03  0 
 -3.176693e-03  -6.459273e-03  0 
 -2.382227e-03  -6.259513e-03  0 
 -2.047729e-03  -6.158967e-03  0 
 -2.732616e-03  -6.647795e-03  0 
 -2.809297e-03  -7.000520e-03  0 
 -2.849310e-03  -7.399926e-03  0 
 -3.396125e-03  -5.941155e-03  0 
 -2.958419e-03  -5.548808e-03  0 
 -3.572898e-03  -5.183726e-03  0 
 -4.180080e-03  -5.834352e-03  0 
 -2.929517e-03  -6.046739e-03  0 
 -2.335208e-03  -5.833791e-03  0 
 -1.735468e-03  -5.534493e-03  0 
 -2.135351e-03  -4.767899e-03  0 
 -2.289598e-03  -5.405001e-03  0 
 -1.993977e-03  -5.280854e-03  0 
 -1.614411e-03  -4.943050e-03  0 
 -2.110081e-03  -5.820398e-03  0 
 -1.935153e-03  -8.195586e-03  0 
 -4.644556e-04  -9.454703e-03  0 
 -1.792134e-03  -7.744367e-03  0 
 -2.151454e-03  -6.995815e-03  0 
 -2.412645e-03  -6.500318e-03  0 
 -2.547002e-03  -6.777279e-03  0 
 -2.458233e-03  -7.064345e-03  0 
 -2.199721e-03  -6.663968e-03  0 
 -2.141017e-03  -7.314337e-03  0 
VECTORS displacement_ITER13 FLOAT
 -2.655161e-03  -6.345112e-03  0 
 -2.476138e-03  -5.152940e-03  0 
 -2.548364e-03  -5.796304e-03  0 
 -3.833381e-03  -6.515694e-03  0 
 -3.176468e-03  -6.458918e-03  0 
 -2.381964e-03  -6.259238e-03  0 
 -2.047394e-03  -6.158810e-03  0 
 -2.732466e-03  -6.647602e-03  0 
 -2.809182e-03  -7.000434e-03  0 
 -2.849215e-03  -7.399847e-03  0 
 -3.395876e-03  -5.940874e-03  0 
 -2.958233e-03  -5.548559e-03  0 
 -3.572581e-03  -5.183696e-03  0 
 -4.179729e-03  -5.834071e-03  0 
 -2.929326e-03  -6.046447e-03  0 
 -2.334656e-03  -5.833960e-03  0 
 -1.736350e-03  -5.532226e-03  0 
 -2.136217e-03  -4.768120e-03  0 
 -2.289483e-03  -5.404904e-03  0 
 -1.992234e-03  -5.281606e-03  0 
 -1.614638e-03  -4.942863e-03  0 
 -2.109534e-03  -5.819755e-03  0 
 -1.934942e-03  -8.194321e-03  0 
 -4.639484e-04  -9.454922e-03  0 
 -1.791916e-03  -7.743905e-03  0 
 -2.151069e-03  -6.995766e-03  0 
 -2.412352e-03  -6.500076e-03  0 
 -2.546785e-03  -6.777117e-03  0 
 -2.457997e-03  -7.064311e-03  0 
 -2.199410e-03  -6.663682e-03  0 
 -2.140510e-03  -7.314343e-03  0 
VECTORS displacement_ITER14 FLOAT
 -2.655134e-03  -6.345202e-03  0 
 -2.476107e-03  -5.152993e-03  0 
 -2.548335e-03  -5.796380e-03  0 
 -3.833381e-03  -6.515786e-03  0 
 -3.176453e-03  -6.459008e-03  0 
 -2.381965e-03  -6.259324e-03  0 
 -2.047418e-03  -6.158888e-03  0 
 -2.732439e-03  -6.647665e-03  0 
 -2.809148e-03  -7.000462e-03  0 
 -2.849178e-03  -7.399826e-03  0 
 -3.395864e-03  -5.940953e-03  0 
 -2.958215e-03  -5.548629e-03  0 
 -3.572569e-03  -5.183737e-03  0 
 -4.179731e-03  -5.834168e-03  0 
 -2.929307e-03  -6.046529e-03  0 
 -2.334641e-03  -5.834060e-03  0 
 -1.736555e-03  -5.531792e-03  0 
 -2.136474e-03  -4.768101e-03  0 
 -2.289550e-03  -5.404933e-03  0 
 -1.992072e-03  -5.281713e-03  0 
 -1.614740e-03  -4.942780e-03  0 
 -2.109539e-03  -5.819707e-03  0 
 -1.935263e-03  -8.194968e-03  0 
 -4.635689e-04  -9.454523e-03  0 
 -1.791755e-03  -7.744083e-03  0 
 -2.151121e-03  -6.995784e-03  0 
 -2.412355e-03  -6.500144e-03  0 
 -2.546779e-03  -6.777167e-03  0 
 -2.458001e-03  -7.064335e-03  0 
 -2.199424e-03  -6.663743e-03  0 
 -2.140562e-03  -7.314331e-03  0 
CELL_DATA 42
TENSORS element_stresses FLOAT
 -1.289669e-02  7.116960e-02  0 
 7.116960e-02  2.232454e-01  0 
 0  0  0 

 6.260928e-03  3.516262e-03  0 
 3.516262e-03  -2.163145e-02  0 
 0  0  0 

 -1.004995e-03  2.468578e-02  0 
 2.468578e-02  1.634229e-02  0 
 0  0  0 

 2.682469e-04  5.115558e-02  0 
 5.115558e-02  1.171435e-02  0 
 0  0  0 

 -2.416238e-01  -2.956918e-02  0 
 -2.956918e-02  1.576357e-01  0 
 0  0  0 

 -3.330932e-01  4.522540e-02  0 
 4.522540e-02  3.136649e-01  0 
 0  0  0 

 -8.042856e-03  2.703061e-02  0 
 2.703061e-02  5.987874e-02  0 
 0  0  0 

 -1.473442e-01  -1.143216e-01  0 
 -1.143216e-01  4.110181e-01  0 
 0  0  0 

 -5.933569e-02  -9.609496e-02  0 
 -9.609496e-02  1.977636e-01  0 
 0  0  0 

 -1.160831e-01  -7.041990e-03  0 
 -7.041990e-03  4.542468e-02  0 
 0  0  0 

 -1.736870e-04  -9.945148e-04  0 
 -9.945148e-04  3.840918e-04  0 
 0  0  0 

 -4.046142e-04  -8.332198e-04  0 
 -8.332198e-04  4.650095e-04  0 
 0  0  0 

 -3.680150e-04  -1.010068e-03  0 
 -1.010068e-03  4.115706e-04  0 
 0  0  0 

 -4.021915e-04  -7.486033e-04  0 
 -7.486033e-04  4.637114e-04  0 
 0  0  0 

 -3.214084e-04  -8.271049e-04  0 
 -8.271049e-04  3.526141e-04  0 
 0  0  0 

 -3.902575e-04  -9.400611e-04  0 
 -9.400611e-04  2.264362e-04  0 
 0  0  0 

 -3.612062e-04  -9.403266e-04  0 
 -9.403266e-04  3.750419e-04  0 
 0  0  0 

 -3.315337e-04  -9.565767e-04  0 
 -9.565767e-04  4.879246e-04  0 
 0  0  0 

 -4.301066e-04  -7.879100e-04  0 
 -7.879100e-04  5.090523e-04  0 
 0  0  0 

 -4.530393e-04  -8.833267e-04  0 
 -8.833267e-04  4.206865e-04  0 
 0  0  0 

 -4.434775e-04  -8.767523e-04  0 
 -8.767523e-04  4.771436e-04  0 
 0  0  0 

 -4.138244e-04  -8.712661e-04  0 
 -8.712661e-04  2.775958e-04  0 
 0  0  0 

 -3.790100e-04  -7.836073e-04  0 
 -7.836073e-04  4.152816e-04  0 
 0  0  0 

 7.634110e-03  -4.125364e-03  0 
 -4.125364e-03  2.517347e-03  0 
 0  0  0 

 4.654152e-03  -1.127851e-02  0 
 -1.127851e-02  1.653663e-02  0 
 0  0  0 

 7.914011e-03  -4.508695e-03  0 
 -4.508695e-03  2.829425e-03  0 
 0  0  0 

 2.242532e-03  -5.539079e-03  0 
 -5.539079e-03  8.505845e-03  0 
 0  0  0 

 7.633111e-03  -4.167892e-03  0 
 -4.167892e-03  2.693916e-03  0 
 0  0  0 

 9.744530e-03  -1.259359e-02  0 
 -1.259359e-02  1.400663e-02  0 
 0  0  0 

 7.521282e-03  -4.503486e-03  0 
 -4.503486e-03  2.554220e-03  0 
 0  0  0 

 -7.652745e-02  7.147319e-02  0 
 7.147319e-02  3.787849e-01  0 
 0  0  0 

 -2.371749e-01  -6.481784e-02  0 
 -6.481784e-02  2.322061e-01  0 
 0  0  0 

 -1.197025e-01  -8.315352e-02  0 
 -8.315352e-02  1.347188e-01  0 
 0  0  0 

 -3.804762e-02  -2.922507e-02  0 
 -2.922507e-02  1.308772e-01  0 
 0  0  0 

 -8.876881e-02  -1.242120e-01  0 
 -1.242120e-01  2.539955e-01  0 
 0  0  0 

 -3.530390e-02  -6.910424e-02  0 
 -6.910424e-02  1.822280e-01  0 
 0  0  0 

 -8.880625e-02  -1.162339e-01  0 
 -1.162339e-01  3.168716e-01  0 
 0  0  0 

 -2.351119e-01  -1.639667e-02  0 
 -1.639667e-02  2.470340e-01  0 
 0  0  0 

 -5.643903e-02  -9.437979e-02  0 
 -9.437979e-02  1.534110e-01  0 
 0  0  0 

 -3.342840e-03  -1.015447e-01  0 
 -1.015447e-01  3.403990e-02  0 
 0  0  0 

 1.852408e-02  -1.417917e-01  0 
 -1.417917e-01  3.018606e-02  0 
 0  0  0 

 -4.686717e-02  -1.280439e-01  0 
 -1.280439e-01  9.949954e-02  0 
 0  0  0 

TENSORS element_stresses FLOAT
 -1.289669e-02  7.116960e-02  0 
 7.116960e-02  2.232454e-01  0 
 0  0  0 

 6.260928e-03  3.516262e-03  0 
 3.516262e-03  -2.163145e-02  0 
 0  0  0 

 -1.004995e-03  2.468578e-02  0 
 2.468578e-02  1.634229e-02  0 
 0  0  0 

 2.682469e-04  5.115558e-02  0 
 5.115558e-02  1.171435e-02  0 
 0  0  0 

 -2.416238e-01  -2.956918e-02  0 
 -2.956918e-02  1.576357e-01  0 
 0  0  0 

 -3.330932e-01  4.522540e-02  0 
 4.522540e-02  3.136649e-01  0 
 0  0  0 

 -8.042856e-03  2.703061e-02  0 
 2.703061e-02  5.987874e-02  0 
 0  0  0 

 -1.473442e-01  -1.143216e-01  0 
 -1.143216e-01  4.110181e-01  0 
 0  0  0 

 -5.933569e-02  -9.609496e-02  0 
 -9.609496e-02  1.977636e-01  0 
 0  0  0 

 -1.160831e-01  -7.041990e-03  0 
 -7.041990e-03  4.542468e-02  0 
 0  0  0 

 -1.736870e-04  -9.945148e-04  0 
 -9.945148e-04  3.840918e-04  0 
 0  0  0 

 -4.046142e-04  -8.332198e-04  0 
 -8.332198e-04  4.650095e-04  0 
 0  0  0 

 -3.680150e-04  -1.010068e-03  0 
 -1.010068e-03  4.115706e-04  0 
 0  0  0 

 -4.021915e-04  -7.486033e-04  0 
 -7.486033e-04  4.637114e-04  0 
 0  0  0 

 -3.214084e-04  -8.271049e-04  0 
 -8.271049e-04  3.526141e-04  0 
 0  0  0 

 -3.902575e-04  -9.400611e-04  0 
 -9.400611e-04  2.264362e-04  0 
 0  0  0 

 -3.612062e-04  -9.403266e-04  0 
 -9.403266e-04  3.750419e-04  0 
 0  0  0 

 -3.315337e-04  -9.565767e-04  0 
 -9.565767e-04  4.879246e-04  0 
 0  0  0 

 -4.301066e-04  -7.879100e-04  0 
 -7.879100e-04  5.090523e-04  0 
 0  0  0 

 -4.530393e-04  -8.833267e-04  0 
 -8.833267e-04  4.206865e-04  0 
 0  0  0 

 -4.434775e-04  -8.767523e-04  0 
 -8.767523e-04  4.771436e-04  0 
 0  0  0 

 -4.138244e-04  -8.712661e-04  0 
 -8.712661e-04  2.775958e-04  0 
 0  0  0 

 -3.790100e-04  -7.836073e-04  0 
 -7.836073e-04  4.152816e-04  0 
 0  0  0 

 7.634110e-03  -4.125364e-03  0 
 -4.125364e-03  2.517347e-03  0 
 0  0  0 

 4.654152e-03  -1.127851e-02  0 
 -1.127851e-02  1.653663e-02  0 
 0  0  0 

 7.914011e-03  -4.508695e-03  0 
 -4.508695e-03  2.829425e-03  0 
 0  0  0 

 2.242532e-03  -5.539079e-03  0 
 -5.539079e-03  8.505845e-03  0 
 0  0  0 

 7.633111e-03  -4.167892e-03  0 
 -4.167892e-03  2.693916e-03  0 
 0  0  0 

 9.744530e-03  -1.259359e-02  0 
 -1.259359e-02  1.400663e-02  0 
 0  0  0 

 7.521282e-03  -4.503486e-03  0 
 -4.503486e-03  2.554220e-03  0 
 0  0  0 

 -7.652745e-02  7.147319e-02  0 
 7.147319e-02  3.787849e-01  0 
 0  0  0 

 -2.371749e-01  -6.481784e-02  0 
 -6.481784e-02  2.322061e-01  0 
 0  0  0 

 -1.197025e-01  -8.315352e-02  0 
 -8.315352e-02  1.347188e-01  0 
 0  0  0 

 -3.804762e-02  -2.922507e-02  0 
 -2.922507e-02  1.308772e-01  0 
 0  0  0 

 -8.876881e-02  -1.242120e-01  0 
 -1.242120e-01  2.539955e-01  0 
 0  0  0 

 -3.530390e-02  -6.910424e-02  0 
 -6.910424e-02  1.822280e-01  0 
 0  0  0 

 -8.880625e-02  -1.162339e-01  0 
 -1.162339e-01  3.168716e-01  0 
 0  0  0 

 -2.351119e-01  -1.639667e-02  0 
 -1.639667e-02  2.470340e-01  0 
 0  0  0 

 -5.643903e-02  -9.437979e-02  0 
 -9.437979e-02  1.534110e-01  0 
 0  0  0 

 -3.342840e-03  -1.015447e-01  0 
 -1.015447e-01  3.403990e-02  0 
 0  0  0 

 1.852408e-02  -1.417917e-01  0 
 -1.417917e-01  3.018606e-02  0 
 0  0  0 

 -4.686717e-02  -1.280439e-01  0 
 -1.280439e-01  9.949954e-02  0 
 0  0  0 

