# vtk DataFile Version 3.1
this is an vtk file created by FEMAC
ASCII
DATASET UNSTRUCTURED_GRID
POINTS 31 FLOAT
2.000000 2.000000 0.000000
2.000000 2.250000 0.000000
2.000000 2.500000 0.000000
2.250000 2.000000 0.000000
2.500000 2.000000 0.000000
2.750000 2.000000 0.000000
2.750000 3.000000 0.000000
3.000000 2.250000 0.000000
3.000000 2.500000 0.000000
1.745000 2.195000 0.000000
2.178356 1.674167 0.000000
2.341416 1.828194 0.000000
2.581646 1.808128 0.000000
2.401594 1.630720 0.000000
2.661856 1.507893 0.000000
2.832250 1.761003 0.000000
2.153954 1.850472 0.000000
2.528684 2.556014 0.000000
2.805000 2.745000 0.000000
2.667801 2.187778 0.000000
2.332917 2.187083 0.000000
2.500000 2.225000 0.000000
2.803850 2.340769 0.000000
2.566179 2.758843 0.000000
2.197089 2.339859 0.000000
2.413333 2.387500 0.000000
2.325606 2.588338 0.000000
2.590972 2.391667 0.000000
2.715781 2.548715 0.000000
2.844330 2.155709 0.000000
2.156001 2.155388 0.000000
CELLS 43 172 
3 0 1 9
3 3 11  4
3 12  5  4
3 13 11 10
3 16  3  0
3 12 15  5
3 16 11  3
3 10 11 16
3 4 11 12
3 12 11 13
3 13 14 12
3 12 14 15
3 19  4  5
3 4 20  3
3 19 21  4
3 21 20  4
3 25 20 21
3 19 27 21
3 1 24  2
3 22  7  8
3 22 27 19
3 23 28 18
3 25 24 20
3 25 27 17
3 25 21 27
3 23 18  6
3 2 24 26
3 25 17 26
3 26 24 25
3 28  8 18
3 22  8 28
3 17 27 28
3 22 28 27
3 5 29 19
3 30  1  0
3 30  3 20
3 3 30  0
3 22 29  7
3 22 19 29
3 30 24  1
3 20 24 30
3 26 17 23
3 17 28 23
CELL_TYPES 43
5 5 5 5 5 5 5 5 5 5 5 5 5 5 5 5 5 5 5 5 5 5 5 5 5 5 5 5 5 5 5 5 5 5 5 5 5 5 5 5 5 5 5 
POINT_DATA 31
VECTORS displacement_ITER1 FLOAT
 -4.600725e-02  -5.024557e-02  0 
 -3.153901e-02  -5.023255e-02  0 
 -1.707856e-02  -5.023498e-02  0 
 -4.601125e-02  -6.471951e-02  0 
 -4.602403e-02  -7.920802e-02  0 
 -4.603775e-02  -9.370687e-02  0 
 1.180031e-02  -9.366522e-02  0 
 -3.156740e-02  -1.081902e-01  0 
 -1.708881e-02  -1.081764e-01  0 
 -2.992343e-02  -7.557521e-03  0 
 -3.962811e-02  -6.729162e-02  0 
 -4.310280e-02  -7.094048e-02  0 
 -4.705383e-02  -8.547687e-02  0 
 -4.590205e-02  -7.867550e-02  0 
 -5.106194e-02  -9.321120e-02  0 
 -5.114297e-02  -1.046215e-01  0 
 -3.748927e-02  -5.890793e-02  0 
 -1.383914e-02  -8.086373e-02  0 
 -2.911422e-03  -9.685350e-02  0 
 -3.515783e-02  -8.893027e-02  0 
 -3.518903e-02  -6.952005e-02  0 
 -3.299800e-02  -7.920266e-02  0 
 -2.630304e-02  -9.681235e-02  0 
 -2.107523e-03  -8.304075e-02  0 
 -2.634427e-02  -6.164956e-02  0 
 -2.359020e-02  -7.417864e-02  0 
 -1.196726e-02  -6.909531e-02  0 
 -2.335065e-02  -8.447155e-02  0 
 -1.426075e-02  -9.169998e-02  0 
 -3.702293e-02  -9.916937e-02  0 
 -3.701981e-02  -5.927412e-02  0 
VECTORS displacement_ITER2 FLOAT
 -2.109433e-02  -5.336145e-02  0 
 -1.460550e-02  -5.336072e-02  0 
 -8.100789e-03  -5.335965e-02  0 
 -2.111172e-02  -5.988583e-02  0 
 -2.111412e-02  -6.641697e-02  0 
 -2.110152e-02  -7.295170e-02  0 
 4.839442e-03  -7.294257e-02  0 
 -1.458842e-02  -7.947857e-02  0 
 -8.099778e-03  -7.947652e-02  0 
 -1.330026e-02  -3.147515e-02  0 
 -1.944149e-02  -5.353472e-02  0 
 -2.003866e-02  -5.954922e-02  0 
 -2.267289e-02  -6.553597e-02  0 
 -2.162571e-02  -6.008858e-02  0 
 -2.240032e-02  -6.285524e-02  0 
 -2.485480e-02  -7.099133e-02  0 
 -1.728002e-02  -5.348036e-02  0 
 -6.637653e-03  -6.720090e-02  0 
 -1.745808e-03  -7.440093e-02  0 
 -1.620884e-02  -7.081809e-02  0 
 -1.624008e-02  -6.205705e-02  0 
 -1.524654e-02  -6.643220e-02  0 
 -1.222960e-02  -7.437452e-02  0 
 -1.371319e-03  -6.818900e-02  0 
 -1.226797e-02  -5.851316e-02  0 
 -1.102145e-02  -6.417721e-02  0 
 -5.793412e-03  -6.189314e-02  0 
 -1.090924e-02  -6.882011e-02  0 
 -6.829005e-03  -7.208211e-02  0 
 -1.703398e-02  -7.543261e-02  0 
 -1.706483e-02  -5.743019e-02  0 
VECTORS displacement_ITER3 FLOAT
 -4.908475e-03  -1.523391e-02  0 
 -5.128396e-03  -1.526489e-02  0 
 -5.315137e-03  -1.524717e-02  0 
 -4.962883e-03  -1.510820e-02  0 
 -4.990327e-03  -1.497286e-02  0 
 -5.004579e-03  -1.487068e-02  0 
 -5.711205e-03  -1.480481e-02  0 
 -5.139766e-03  -1.470529e-02  0 
 -5.312397e-03  -1.468316e-02  0 
 -3.003331e-03  -2.419210e-02  0 
 -1.250115e-02  -7.922991e-03  0 
 -7.930513e-03  -1.286330e-02  0 
 -1.197358e-02  -1.833654e-02  0 
 -1.820702e-02  -1.520670e-02  0 
 -3.966613e-02  -3.889958e-02  0 
 -2.682237e-02  -4.055710e-02  0 
 -6.515354e-03  -1.095737e-02  0 
 -5.342808e-03  -1.496229e-02  0 
 -5.486361e-03  -1.479461e-02  0 
 -5.092124e-03  -1.488960e-02  0 
 -5.085718e-03  -1.504721e-02  0 
 -5.113406e-03  -1.496906e-02  0 
 -5.194028e-03  -1.481274e-02  0 
 -5.487165e-03  -1.495019e-02  0 
 -5.198253e-03  -1.512864e-02  0 
 -5.225740e-03  -1.501688e-02  0 
 -5.366317e-03  -1.507166e-02  0 
 -5.226462e-03  -1.492442e-02  0 
 -5.337440e-03  -1.485631e-02  0 
 -5.076322e-03  -1.480636e-02  0 
 -5.049260e-03  -1.514235e-02  0 
VECTORS displacement_ITER4 FLOAT
 -8.613980e-03  2.512747e-03  0 
 -6.123901e-03  2.476541e-03  0 
 -3.553763e-03  2.506446e-03  0 
 -8.713570e-03  -1.393017e-04  0 
 -8.771172e-03  -2.776711e-03  0 
 -8.806979e-03  -5.467875e-03  0 
 1.678481e-03  -5.424271e-03  0 
 -6.135738e-03  -8.109618e-03  0 
 -3.517911e-03  -8.092559e-03  0 
 -4.229882e-03  -2.139849e-03  0 
 -1.727700e-03  -1.824099e-03  0 
 -6.347153e-03  -8.299226e-04  0 
 -8.415568e-03  -3.070542e-03  0 
 -4.503140e-03  -2.852449e-03  0 
 -6.167072e-03  -5.272559e-03  0 
 -1.120912e-02  -7.082719e-03  0 
 -4.563147e-03  -3.601745e-04  0 
 -2.927211e-03  -3.088813e-03  0 
 -9.470845e-04  -6.023002e-03  0 
 -6.789967e-03  -4.558617e-03  0 
 -6.776635e-03  -9.767218e-04  0 
 -6.389189e-03  -2.764966e-03  0 
 -5.179248e-03  -6.013395e-03  0 
 -8.004415e-04  -3.500737e-03  0 
 -5.202122e-03  4.477672e-04  0 
 -4.692447e-03  -1.849624e-03  0 
 -2.598022e-03  -9.409497e-04  0 
 -4.644677e-03  -3.740205e-03  0 
 -2.999920e-03  -5.075906e-03  0 
 -7.139647e-03  -6.448942e-03  0 
 -7.076197e-03  8.909724e-04  0 
VECTORS displacement_ITER5 FLOAT
 -2.689673e-03  5.909761e-04  0 
 -1.788503e-03  5.390367e-04  0 
 -7.913764e-04  5.607936e-04  0 
 -2.807998e-03  -5.120067e-04  0 
 -2.871571e-03  -1.591504e-03  0 
 -2.917849e-03  -2.739806e-03  0 
 1.240266e-03  -2.647736e-03  0 
 -1.806500e-03  -3.799964e-03  0 
 -7.481581e-04  -3.749379e-03  0 
 -1.315107e-03  7.834904e-04  0 
 -1.283610e-03  -9.300924e-04  0 
 -2.072112e-03  -9.580445e-04  0 
 -2.583897e-03  -2.388115e-03  0 
 -2.338688e-03  -1.691804e-03  0 
 -3.965925e-03  -4.130686e-03  0 
 -3.640115e-03  -5.751090e-03  0 
 -1.426943e-03  -3.295581e-04  0 
 -5.142107e-04  -1.723737e-03  0 
 2.543613e-04  -2.911865e-03  0 
 -2.060476e-03  -2.323020e-03  0 
 -2.040639e-03  -8.285595e-04  0 
 -1.891827e-03  -1.576267e-03  0 
 -1.407015e-03  -2.918985e-03  0 
 3.237506e-04  -1.901567e-03  0 
 -1.428388e-03  -2.562223e-04  0 
 -1.216528e-03  -1.204106e-03  0 
 -3.869416e-04  -8.479140e-04  0 
 -1.193979e-03  -1.983007e-03  0 
 -5.412006e-04  -2.535179e-03  0 
 -2.218894e-03  -3.118181e-03  0 
 -2.138489e-03  -6.041877e-05  0 
VECTORS displacement_ITER6 FLOAT
 -1.395454e-03  -5.690471e-04  0 
 -1.035413e-03  -6.292199e-04  0 
 -5.611503e-04  -5.998966e-04  0 
 -1.521642e-03  -1.151113e-03  0 
 -1.586299e-03  -1.704010e-03  0 
 -1.637735e-03  -2.338972e-03  0 
 3.139553e-04  -2.176281e-03  0 
 -1.052528e-03  -2.852560e-03  0 
 -5.391872e-04  -2.779077e-03  0 
 -3.278795e-04  -1.434278e-03  0 
 -1.412807e-03  -3.660917e-04  0 
 -1.457896e-03  -1.019128e-03  0 
 -1.825018e-03  -1.789840e-03  0 
 -1.946978e-03  -1.169567e-03  0 
 -2.917181e-03  -2.199135e-03  0 
 -2.459638e-03  -3.240701e-03  0 
 -1.172699e-03  -4.251638e-04  0 
 -4.142684e-04  -1.780378e-03  0 
 -8.966611e-05  -2.344304e-03  0 
 -1.160751e-03  -2.088367e-03  0 
 -1.147704e-03  -1.294547e-03  0 
 -1.074659e-03  -1.695288e-03  0 
 -8.417506e-04  -2.387593e-03  0 
 -4.363208e-05  -1.861414e-03  0 
 -8.644114e-04  -1.013453e-03  0 
 -7.485440e-04  -1.511626e-03  0 
 -3.469631e-04  -1.347593e-03  0 
 -7.355488e-04  -1.909030e-03  0 
 -4.327024e-04  -2.181031e-03  0 
 -1.248646e-03  -2.516706e-03  0 
 -1.179343e-03  -8.953941e-04  0 
VECTORS displacement_ITER7 FLOAT
 -6.181434e-04  -7.903966e-04  0 
 -5.205672e-04  -8.640185e-04  0 
 -2.908265e-04  -8.739706e-04  0 
 -7.710107e-04  -1.149000e-03  0 
 -8.564889e-04  -1.470662e-03  0 
 -9.294666e-04  -1.862471e-03  0 
 2.284897e-04  -1.766537e-03  0 
 -5.688105e-04  -2.184445e-03  0 
 -2.555496e-04  -2.113294e-03  0 
 -3.032341e-04  -7.454680e-04  0 
 -1.018015e-03  -6.909720e-04  0 
 -8.825078e-04  -1.121039e-03  0 
 -1.004487e-03  -1.633913e-03  0 
 -1.279381e-03  -1.199114e-03  0 
 -1.870562e-03  -1.864875e-03  0 
 -1.264953e-03  -2.629801e-03  0 
 -7.978015e-04  -6.671185e-04  0 
 -1.957731e-04  -1.494813e-03  0 
 -2.290909e-06  -1.856408e-03  0 
 -6.148573e-04  -1.686592e-03  0 
 -5.743817e-04  -1.203533e-03  0 
 -5.516242e-04  -1.443295e-03  0 
 -4.294172e-04  -1.874644e-03  0 
 1.994760e-05  -1.559455e-03  0 
 -4.283924e-04  -1.053211e-03  0 
 -3.736505e-04  -1.326997e-03  0 
 -1.723583e-04  -1.232947e-03  0 
 -3.681253e-04  -1.569696e-03  0 
 -1.983061e-04  -1.746539e-03  0 
 -6.787913e-04  -1.977539e-03  0 
 -5.671727e-04  -9.680921e-04  0 
VECTORS displacement_ITER8 FLOAT
 -5.485066e-04  -1.001811e-03  0 
 -5.333884e-04  -1.097908e-03  0 
 -3.769989e-04  -1.123106e-03  0 
 -7.124678e-04  -1.312904e-03  0 
 -8.029798e-04  -1.568686e-03  0 
 -8.771495e-04  -1.880132e-03  0 
 6.048166e-05  -1.838505e-03  0 
 -5.900292e-04  -2.151411e-03  0 
 -3.387949e-04  -2.083818e-03  0 
 -5.052315e-04  -6.211029e-04  0 
 -5.381064e-04  -1.362948e-03  0 
 -7.418960e-04  -1.384422e-03  0 
 -9.549012e-04  -1.682275e-03  0 
 -8.483634e-04  -1.595057e-03  0 
 -1.281676e-03  -2.039251e-03  0 
 -1.265843e-03  -2.146375e-03  0 
 -5.698581e-04  -1.137916e-03  0 
 -3.028994e-04  -1.579593e-03  0 
 -1.419088e-04  -1.905463e-03  0 
 -6.167550e-04  -1.735374e-03  0 
 -5.670685e-04  -1.342736e-03  0 
 -5.614168e-04  -1.535995e-03  0 
 -4.729749e-04  -1.892741e-03  0 
 -1.257186e-04  -1.644367e-03  0 
 -4.640871e-04  -1.230809e-03  0 
 -4.313090e-04  -1.438076e-03  0 
 -2.944429e-04  -1.361269e-03  0 
 -4.286616e-04  -1.639299e-03  0 
 -3.008229e-04  -1.795413e-03  0 
 -6.695739e-04  -1.988539e-03  0 
 -5.463358e-04  -1.149854e-03  0 
VECTORS displacement_ITER9 FLOAT
 -5.524040e-04  -8.412950e-04  0 
 -5.195349e-04  -9.431434e-04  0 
 -3.443346e-04  -9.673182e-04  0 
 -7.167459e-04  -1.177496e-03  0 
 -8.054378e-04  -1.452884e-03  0 
 -8.793072e-04  -1.786359e-03  0 
 1.770600e-04  -1.773566e-03  0 
 -5.692781e-04  -2.070237e-03  0 
 -3.019903e-04  -1.999215e-03  0 
 -4.487208e-04  -6.067442e-04  0 
 -7.329072e-04  -1.049646e-03  0 
 -7.594801e-04  -1.265602e-03  0 
 -9.237407e-04  -1.581834e-03  0 
 -8.933616e-04  -1.393513e-03  0 
 -1.219833e-03  -1.808456e-03  0 
 -1.163056e-03  -2.117554e-03  0 
 -6.430397e-04  -1.027449e-03  0 
 -2.654376e-04  -1.469740e-03  0 
 -8.392981e-05  -1.837844e-03  0 
 -6.057652e-04  -1.630938e-03  0 
 -5.571304e-04  -1.214686e-03  0 
 -5.486861e-04  -1.421297e-03  0 
 -4.476416e-04  -1.798306e-03  0 
 -6.749252e-05  -1.536711e-03  0 
 -4.436123e-04  -1.091703e-03  0 
 -4.068728e-04  -1.317974e-03  0 
 -2.536342e-04  -1.234913e-03  0 
 -4.038892e-04  -1.534244e-03  0 
 -2.661137e-04  -1.704107e-03  0 
 -6.634511e-04  -1.891416e-03  0 
 -5.382040e-04  -1.006131e-03  0 
VECTORS displacement_ITER10 FLOAT
 -5.141217e-04  -8.175931e-04  0 
 -4.889599e-04  -9.244755e-04  0 
 -3.109951e-04  -9.379611e-04  0 
 -6.763135e-04  -1.151662e-03  0 
 -7.611597e-04  -1.418586e-03  0 
 -8.337484e-04  -1.740937e-03  0 
 1.693092e-04  -1.723812e-03  0 
 -5.357283e-04  -2.006963e-03  0 
 -2.839237e-04  -1.931709e-03  0 
 -3.658829e-04  -8.215937e-04  0 
 -6.668139e-04  -7.727267e-04  0 
 -6.587540e-04  -1.178603e-03  0 
 -8.816976e-04  -1.554542e-03  0 
 -8.621139e-04  -1.342779e-03  0 
 -1.305441e-03  -2.021784e-03  0 
 -1.228583e-03  -2.072387e-03  0 
 -5.553139e-04  -9.022268e-04  0 
 -2.470736e-04  -1.440537e-03  0 
 -9.074648e-05  -1.781802e-03  0 
 -5.660295e-04  -1.591092e-03  0 
 -5.215177e-04  -1.189451e-03  0 
 -5.120565e-04  -1.390965e-03  0 
 -4.174477e-04  -1.748023e-03  0 
 -7.693148e-05  -1.498877e-03  0 
 -4.156558e-04  -1.073438e-03  0 
 -3.778445e-04  -1.296013e-03  0 
 -2.309434e-04  -1.222115e-03  0 
 -3.753490e-04  -1.500344e-03  0 
 -2.509753e-04  -1.657557e-03  0 
 -6.215376e-04  -1.841961e-03  0 
 -5.031811e-04  -9.841066e-04  0 
VECTORS displacement_ITER11 FLOAT
 -5.242379e-04  -8.149839e-04  0 
 -4.961705e-04  -9.220167e-04  0 
 -3.115678e-04  -9.343526e-04  0 
 -6.865415e-04  -1.152935e-03  0 
 -7.708541e-04  -1.422716e-03  0 
 -8.428667e-04  -1.745044e-03  0 
 1.689962e-04  -1.735743e-03  0 
 -5.442856e-04  -2.018055e-03  0 
 -2.864691e-04  -1.943717e-03  0 
 -4.115080e-04  -6.249854e-04  0 
 -6.051760e-04  -1.030951e-03  0 
 -7.030070e-04  -1.218925e-03  0 
 -8.994116e-04  -1.552463e-03  0 
 -8.415182e-04  -1.394456e-03  0 
 -1.228529e-03  -1.925529e-03  0 
 -1.194801e-03  -2.033503e-03  0 
 -5.756803e-04  -9.783057e-04  0 
 -2.530982e-04  -1.444050e-03  0 
 -9.654889e-05  -1.789493e-03  0 
 -5.754320e-04  -1.595496e-03  0 
 -5.294881e-04  -1.192047e-03  0 
 -5.206350e-04  -1.394078e-03  0 
 -4.245889e-04  -1.754319e-03  0 
 -8.196310e-05  -1.504530e-03  0 
 -4.214246e-04  -1.074645e-03  0 
 -3.850236e-04  -1.297669e-03  0 
 -2.369851e-04  -1.221004e-03  0 
 -3.825667e-04  -1.504125e-03  0 
 -2.559067e-04  -1.664335e-03  0 
 -6.315858e-04  -1.848034e-03  0 
 -5.115442e-04  -9.840607e-04  0 
VECTORS displacement_ITER12 FLOAT
 -5.238440e-04  -8.141798e-04  0 
 -4.959470e-04  -9.215992e-04  0 
 -3.119796e-04  -9.344700e-04  0 
 -6.861104e-04  -1.152163e-03  0 
 -7.704818e-04  -1.421829e-03  0 
 -8.427925e-04  -1.744642e-03  0 
 1.688721e-04  -1.738060e-03  0 
 -5.448207e-04  -2.017148e-03  0 
 -2.865972e-04  -1.942743e-03  0 
 -4.085887e-04  -6.254373e-04  0 
 -6.252439e-04  -1.010370e-03  0 
 -7.049995e-04  -1.217469e-03  0 
 -8.938505e-04  -1.549347e-03  0 
 -8.459545e-04  -1.381159e-03  0 
 -1.234254e-03  -1.924073e-03  0 
 -1.180188e-03  -2.018641e-03  0 
 -5.851769e-04  -9.802495e-04  0 
 -2.532949e-04  -1.442649e-03  0 
 -9.642085e-05  -1.787925e-03  0 
 -5.752154e-04  -1.594399e-03  0 
 -5.291427e-04  -1.191169e-03  0 
 -5.203653e-04  -1.393040e-03  0 
 -4.248811e-04  -1.752711e-03  0 
 -8.283094e-05  -1.502842e-03  0 
 -4.212504e-04  -1.073924e-03  0 
 -3.849231e-04  -1.296629e-03  0 
 -2.371713e-04  -1.220131e-03  0 
 -3.825875e-04  -1.502730e-03  0 
 -2.561042e-04  -1.662482e-03  0 
 -6.314991e-04  -1.846274e-03  0 
 -5.111594e-04  -9.833455e-04  0 
VECTORS displacement_ITER13 FLOAT
 -5.236604e-04  -8.148012e-04  0 
 -4.959802e-04  -9.221311e-04  0 
 -3.121548e-04  -9.348695e-04  0 
 -6.859585e-04  -1.152548e-03  0 
 -7.703253e-04  -1.422038e-03  0 
 -8.425259e-04  -1.744512e-03  0 
 1.687008e-04  -1.738805e-03  0 
 -5.448623e-04  -2.017271e-03  0 
 -2.866672e-04  -1.942767e-03  0 
 -4.089447e-04  -6.268725e-04  0 
 -6.185621e-04  -1.007589e-03  0 
 -7.025339e-04  -1.214889e-03  0 
 -8.906579e-04  -1.548192e-03  0 
 -8.452893e-04  -1.378544e-03  0 
 -1.242639e-03  -1.929563e-03  0 
 -1.176221e-03  -2.015015e-03  0 
 -5.841930e-04  -9.809079e-04  0 
 -2.534464e-04  -1.442938e-03  0 
 -9.658648e-05  -1.788174e-03  0 
 -5.752045e-04  -1.594524e-03  0 
 -5.291460e-04  -1.191492e-03  0 
 -5.203795e-04  -1.393275e-03  0 
 -4.249049e-04  -1.752821e-03  0 
 -8.306129e-05  -1.503130e-03  0 
 -4.213664e-04  -1.074325e-03  0 
 -3.850214e-04  -1.296946e-03  0 
 -2.373579e-04  -1.220555e-03  0 
 -3.826660e-04  -1.502953e-03  0 
 -2.562388e-04  -1.662681e-03  0 
 -6.314399e-04  -1.846361e-03  0 
 -5.111357e-04  -9.837912e-04  0 
VECTORS displacement_ITER14 FLOAT
 -5.237117e-04  -8.147509e-04  0 
 -4.960091e-04  -9.220886e-04  0 
 -3.121795e-04  -9.348429e-04  0 
 -6.860081e-04  -1.152523e-03  0 
 -7.703728e-04  -1.422034e-03  0 
 -8.425672e-04  -1.744521e-03  0 
 1.687120e-04  -1.738762e-03  0 
 -5.449174e-04  -2.017337e-03  0 
 -2.866795e-04  -1.942806e-03  0 
 -4.082578e-04  -6.278627e-04  0 
 -6.182175e-04  -1.007194e-03  0 
 -7.025838e-04  -1.214708e-03  0 
 -8.907930e-04  -1.548424e-03  0 
 -8.458253e-04  -1.379226e-03  0 
 -1.243177e-03  -1.930447e-03  0 
 -1.175956e-03  -2.014000e-03  0 
 -5.846012e-04  -9.803882e-04  0 
 -2.534549e-04  -1.442932e-03  0 
 -9.658858e-05  -1.788199e-03  0 
 -5.752421e-04  -1.594531e-03  0 
 -5.291817e-04  -1.191474e-03  0 
 -5.204142e-04  -1.393270e-03  0 
 -4.249346e-04  -1.752835e-03  0 
 -8.305382e-05  -1.503126e-03  0 
 -4.213886e-04  -1.074290e-03  0 
 -3.850439e-04  -1.296932e-03  0 
 -2.373565e-04  -1.220523e-03  0 
 -3.826907e-04  -1.502955e-03  0 
 -2.562512e-04  -1.662696e-03  0 
 -6.314791e-04  -1.846372e-03  0 
 -5.111717e-04  -9.837581e-04  0 
CELL_DATA 43
TENSORS element_stresses FLOAT
 -5.459648e-04  -7.310855e-04  0 
 -7.310855e-04  -5.931403e-04  0 
 0  0  0 

 -4.406137e-04  -8.931718e-04  0 
 -8.931718e-04  -3.438492e-04  0 
 0  0  0 

 -2.811350e-04  -6.040182e-04  0 
 -6.040182e-04  2.547543e-05  0 
 0  0  0 

 -9.121520e-04  -8.911030e-04  0 
 -8.911030e-04  7.211217e-05  0 
 0  0  0 

 -8.068031e-04  -1.240216e-03  0 
 -1.240216e-03  -5.253924e-04  0 
 0  0  0 

 -8.566904e-04  -5.283779e-04  0 
 -5.283779e-04  2.649485e-04  0 
 0  0  0 

 -8.315331e-04  -1.186858e-03  0 
 -1.186858e-03  -5.730642e-04  0 
 0  0  0 

 -6.848919e-04  -8.824651e-04  0 
 -8.824651e-04  -2.267830e-04  0 
 0  0  0 

 -8.098272e-04  -8.294022e-04  0 
 -8.294022e-04  -1.728532e-04  0 
 0  0  0 

 -6.764835e-04  -6.574612e-04  0 
 -6.574612e-04  2.175389e-04  0 
 0  0  0 

 -9.567288e-04  -6.615944e-04  0 
 -6.615944e-04  5.215070e-04  0 
 0  0  0 

 -7.918375e-04  -6.065072e-04  0 
 -6.065072e-04  5.795811e-04  0 
 0  0  0 

 -2.401643e-01  5.588117e-03  0 
 5.588117e-03  1.620447e-01  0 
 0  0  0 

 -2.819571e-01  -6.939227e-02  0 
 -6.939227e-02  1.850064e-01  0 
 0  0  0 

 -4.611169e-02  -4.624526e-02  0 
 -4.624526e-02  1.140071e-01  0 
 0  0  0 

 -1.772304e-01  -9.679842e-02  0 
 -9.679842e-02  7.467147e-02  0 
 0  0  0 

 -1.489578e-01  -3.302300e-01  0 
 -3.302300e-01  -9.043607e-02  0 
 0  0  0 

 -1.416141e-01  -2.337721e-01  0 
 -2.337721e-01  -4.554745e-02  0 
 0  0  0 

 3.082724e-02  -1.051447e-02  0 
 -1.051447e-02  -4.176872e-02  0 
 0  0  0 

 -4.862977e-02  -1.365856e-01  0 
 -1.365856e-01  2.835354e-01  0 
 0  0  0 

 3.551716e-02  -1.663845e-01  0 
 -1.663845e-01  1.816555e-02  0 
 0  0  0 

 -4.129786e-02  -2.934578e-01  0 
 -2.934578e-01  -1.067262e-01  0 
 0  0  0 

 -2.928627e-02  -2.210043e-01  0 
 -2.210043e-01  -1.328235e-01  0 
 0  0  0 

 -2.995443e-02  -2.874248e-01  0 
 -2.874248e-01  -8.267581e-02  0 
 0  0  0 

 -1.519814e-02  -2.534281e-01  0 
 -2.534281e-01  -2.994408e-02  0 
 0  0  0 

 -1.718763e-02  -1.201647e-01  0 
 -1.201647e-01  -6.955035e-02  0 
 0  0  0 

 -1.477126e-02  -8.583943e-02  0 
 -8.583943e-02  -1.611390e-01  0 
 0  0  0 

 9.911767e-03  -2.760435e-01  0 
 -2.760435e-01  -1.022794e-01  0 
 0  0  0 

 -1.475347e-02  -2.137605e-01  0 
 -2.137605e-01  -6.762176e-02  0 
 0  0  0 

 -2.555273e-02  -1.663117e-01  0 
 -1.663117e-01  -1.852537e-01  0 
 0  0  0 

 4.360697e-02  -1.206030e-01  0 
 -1.206030e-01  3.041750e-02  0 
 0  0  0 

 -9.209383e-03  -2.964270e-01  0 
 -2.964270e-01  -8.392124e-02  0 
 0  0  0 

 -2.884300e-02  -2.936049e-01  0 
 -2.936049e-01  -7.948669e-02  0 
 0  0  0 

 -9.161001e-03  2.217625e-03  0 
 2.217625e-03  1.865723e-01  0 
 0  0  0 

 -1.745017e-01  -4.191505e-01  0 
 -4.191505e-01  -4.817014e-01  0 
 0  0  0 

 -1.889937e-01  -2.117442e-01  0 
 -2.117442e-01  2.823921e-01  0 
 0  0  0 

 -6.247840e-01  -4.758787e-01  0 
 -4.758787e-01  8.133814e-02  0 
 0  0  0 

 -3.921126e-02  -1.132120e-01  0 
 -1.132120e-01  2.224181e-01  0 
 0  0  0 

 -6.614946e-02  -2.310169e-01  0 
 -2.310169e-01  1.815395e-01  0 
 0  0  0 

 7.470677e-02  -1.251001e-01  0 
 -1.251001e-01  -3.323786e-01  0 
 0  0  0 

 -2.950379e-01  -4.621303e-01  0 
 -4.621303e-01  -3.272939e-01  0 
 0  0  0 

 2.792077e-02  -2.149457e-01  0 
 -2.149457e-01  -8.323833e-02  0 
 0  0  0 

 -6.612742e-03  -2.621771e-01  0 
 -2.621771e-01  -8.104506e-02  0 
 0  0  0 

TENSORS element_stresses FLOAT
 -5.459648e-04  -7.310855e-04  0 
 -7.310855e-04  -5.931403e-04  0 
 0  0  0 

 -4.406137e-04  -8.931718e-04  0 
 -8.931718e-04  -3.438492e-04  0 
 0  0  0 

 -2.811350e-04  -6.040182e-04  0 
 -6.040182e-04  2.547543e-05  0 
 0  0  0 

 -9.121520e-04  -8.911030e-04  0 
 -8.911030e-04  7.211217e-05  0 
 0  0  0 

 -8.068031e-04  -1.240216e-03  0 
 -1.240216e-03  -5.253924e-04  0 
 0  0  0 

 -8.566904e-04  -5.283779e-04  0 
 -5.283779e-04  2.649485e-04  0 
 0  0  0 

 -8.315331e-04  -1.186858e-03  0 
 -1.186858e-03  -5.730642e-04  0 
 0  0  0 

 -6.848919e-04  -8.824651e-04  0 
 -8.824651e-04  -2.267830e-04  0 
 0  0  0 

 -8.098272e-04  -8.294022e-04  0 
 -8.294022e-04  -1.728532e-04  0 
 0  0  0 

 -6.764835e-04  -6.574612e-04  0 
 -6.574612e-04  2.175389e-04  0 
 0  0  0 

 -9.567288e-04  -6.615944e-04  0 
 -6.615944e-04  5.215070e-04  0 
 0  0  0 

 -7.918375e-04  -6.065072e-04  0 
 -6.065072e-04  5.795811e-04  0 
 0  0  0 

 -2.401643e-01  5.588117e-03  0 
 5.588117e-03  1.620447e-01  0 
 0  0  0 

 -2.819571e-01  -6.939227e-02  0 
 -6.939227e-02  1.850064e-01  0 
 0  0  0 

 -4.611169e-02  -4.624526e-02  0 
 -4.624526e-02  1.140071e-01  0 
 0  0  0 

 -1.772304e-01  -9.679842e-02  0 
 -9.679842e-02  7.467147e-02  0 
 0  0  0 

 -1.489578e-01  -3.302300e-01  0 
 -3.302300e-01  -9.043607e-02  0 
 0  0  0 

 -1.416141e-01  -2.337721e-01  0 
 -2.337721e-01  -4.554745e-02  0 
 0  0  0 

 3.082724e-02  -1.051447e-02  0 
 -1.051447e-02  -4.176872e-02  0 
 0  0  0 

 -4.862977e-02  -1.365856e-01  0 
 -1.365856e-01  2.835354e-01  0 
 0  0  0 

 3.551716e-02  -1.663845e-01  0 
 -1.663845e-01  1.816555e-02  0 
 0  0  0 

 -4.129786e-02  -2.934578e-01  0 
 -2.934578e-01  -1.067262e-01  0 
 0  0  0 

 -2.928627e-02  -2.210043e-01  0 
 -2.210043e-01  -1.328235e-01  0 
 0  0  0 

 -2.995443e-02  -2.874248e-01  0 
 -2.874248e-01  -8.267581e-02  0 
 0  0  0 

 -1.519814e-02  -2.534281e-01  0 
 -2.534281e-01  -2.994408e-02  0 
 0  0  0 

 -1.718763e-02  -1.201647e-01  0 
 -1.201647e-01  -6.955035e-02  0 
 0  0  0 

 -1.477126e-02  -8.583943e-02  0 
 -8.583943e-02  -1.611390e-01  0 
 0  0  0 

 9.911767e-03  -2.760435e-01  0 
 -2.760435e-01  -1.022794e-01  0 
 0  0  0 

 -1.475347e-02  -2.137605e-01  0 
 -2.137605e-01  -6.762176e-02  0 
 0  0  0 

 -2.555273e-02  -1.663117e-01  0 
 -1.663117e-01  -1.852537e-01  0 
 0  0  0 

 4.360697e-02  -1.206030e-01  0 
 -1.206030e-01  3.041750e-02  0 
 0  0  0 

 -9.209383e-03  -2.964270e-01  0 
 -2.964270e-01  -8.392124e-02  0 
 0  0  0 

 -2.884300e-02  -2.936049e-01  0 
 -2.936049e-01  -7.948669e-02  0 
 0  0  0 

 -9.161001e-03  2.217625e-03  0 
 2.217625e-03  1.865723e-01  0 
 0  0  0 

 -1.745017e-01  -4.191505e-01  0 
 -4.191505e-01  -4.817014e-01  0 
 0  0  0 

 -1.889937e-01  -2.117442e-01  0 
 -2.117442e-01  2.823921e-01  0 
 0  0  0 

 -6.247840e-01  -4.758787e-01  0 
 -4.758787e-01  8.133814e-02  0 
 0  0  0 

 -3.921126e-02  -1.132120e-01  0 
 -1.132120e-01  2.224181e-01  0 
 0  0  0 

 -6.614946e-02  -2.310169e-01  0 
 -2.310169e-01  1.815395e-01  0 
 0  0  0 

 7.470677e-02  -1.251001e-01  0 
 -1.251001e-01  -3.323786e-01  0 
 0  0  0 

 -2.950379e-01  -4.621303e-01  0 
 -4.621303e-01  -3.272939e-01  0 
 0  0  0 

 2.792077e-02  -2.149457e-01  0 
 -2.149457e-01  -8.323833e-02  0 
 0  0  0 

 -6.612742e-03  -2.621771e-01  0 
 -2.621771e-01  -8.104506e-02  0 
 0  0  0 

