# vtk DataFile Version 3.1
this is an vtk file created by FEMAC
ASCII
DATASET UNSTRUCTURED_GRID
POINTS 30 FLOAT
5.000000 6.000000 0.000000
6.000000 5.000000 0.000000
6.000000 6.000000 0.000000
5.000000 5.250000 0.000000
5.000000 5.500000 0.000000
5.000000 5.750000 0.000000
5.500000 5.000000 0.000000
5.750000 5.000000 0.000000
5.250000 6.000000 0.000000
5.500000 6.000000 0.000000
5.750000 6.000000 0.000000
6.000000 5.250000 0.000000
6.000000 5.500000 0.000000
6.000000 5.750000 0.000000
5.447447 5.528256 0.000000
5.813081 5.669072 0.000000
5.813653 5.331392 0.000000
5.255000 5.805000 0.000000
5.255000 5.195000 0.000000
5.775000 5.500000 0.000000
5.660928 5.805846 0.000000
5.661595 5.194695 0.000000
5.169567 5.378219 0.000000
5.242859 5.565925 0.000000
5.413341 5.323754 0.000000
5.453287 5.717271 0.000000
5.616917 5.404183 0.000000
5.613486 5.598598 0.000000
5.844802 5.844984 0.000000
5.845050 5.155217 0.000000
CELLS 43 172 
3 15 12 13
3 12 16 11
3 17  9  8
3 15 19 12
3 19 16 12
3 26 16 19
3 15 27 19
3 3 22  4
3 23  5  4
3 7 21  6
3 20 10  9
3 20 27 15
3 26 21 16
3 23 25 17
3 24 22 18
3 26 27 14
3 26 19 27
3 23 17  5
3 18 22  3
3 6 24 18
3 6 21 24
3 26 14 24
3 24 21 26
3 25  9 17
3 20  9 25
3 14 27 25
3 20 25 27
3 17  0  5
3 8  0 17
3 10 28  2
3 13 28 15
3 28 13  2
3 29  7  1
3 29 11 16
3 11 29  1
3 20 28 10
3 20 15 28
3 29 21  7
3 16 21 29
3 4 22 23
3 24 14 23
3 14 25 23
3 23 22 24
CELL_TYPES 43
5 5 5 5 5 5 5 5 5 5 5 5 5 5 5 5 5 5 5 5 5 5 5 5 5 5 5 5 5 5 5 5 5 5 5 5 5 5 5 5 5 5 5 
POINT_DATA 30
VECTORS displacement_ITER1 FLOAT
 2.365062e-01  -3.368999e-01  0 
 1.207027e-01  -4.527169e-01  0 
 2.365435e-01  -4.527965e-01  0 
 1.496303e-01  -3.368893e-01  0 
 1.785869e-01  -3.368937e-01  0 
 2.075471e-01  -3.368955e-01  0 
 1.206814e-01  -3.948154e-01  0 
 1.206891e-01  -4.237711e-01  0 
 2.365179e-01  -3.658690e-01  0 
 2.365281e-01  -3.948364e-01  0 
 2.365373e-01  -4.238120e-01  0 
 1.496442e-01  -4.527478e-01  0 
 1.786005e-01  -4.527693e-01  0 
 2.075669e-01  -4.527862e-01  0 
 1.818651e-01  -3.887360e-01  0 
 1.981850e-01  -4.311139e-01  0 
 1.590648e-01  -4.311637e-01  0 
 2.139244e-01  -3.664401e-01  0 
 1.432617e-01  -3.664347e-01  0 
 1.785959e-01  -4.266928e-01  0 
 2.140324e-01  -4.134817e-01  0 
 1.432303e-01  -4.135408e-01  0 
 1.644833e-01  -3.565370e-01  0 
 1.862268e-01  -3.650302e-01  0 
 1.581753e-01  -3.847815e-01  0 
 2.037640e-01  -3.894153e-01  0 
 1.674935e-01  -4.083706e-01  0 
 1.900162e-01  -4.079781e-01  0 
 2.185722e-01  -4.347974e-01  0 
 1.386631e-01  -4.347903e-01  0 
VECTORS displacement_ITER2 FLOAT
 1.505590e-01  -1.504868e-01  0 
 6.805510e-02  -2.330127e-01  0 
 1.506101e-01  -2.330562e-01  0 
 8.867270e-02  -1.504321e-01  0 
 1.092992e-01  -1.504542e-01  0 
 1.299315e-01  -1.504717e-01  0 
 6.803666e-02  -1.917236e-01  0 
 6.804287e-02  -2.123714e-01  0 
 1.505753e-01  -1.711183e-01  0 
 1.505911e-01  -1.917532e-01  0 
 1.506032e-01  -2.123999e-01  0 
 8.868269e-02  -2.330281e-01  0 
 1.093203e-01  -2.330375e-01  0 
 1.299614e-01  -2.330476e-01  0 
 1.116464e-01  -1.873958e-01  0 
 1.232764e-01  -2.176010e-01  0 
 9.539889e-02  -2.176398e-01  0 
 1.344822e-01  -1.715178e-01  0 
 8.413643e-02  -1.714875e-01  0 
 1.093182e-01  -2.144504e-01  0 
 1.345670e-01  -2.050352e-01  0 
 8.411327e-02  -2.050771e-01  0 
 9.925788e-02  -1.644412e-01  0 
 1.147511e-01  -1.705035e-01  0 
 9.476726e-02  -1.845717e-01  0 
 1.272486e-01  -1.878842e-01  0 
 1.014073e-01  -2.013895e-01  0 
 1.174554e-01  -2.011112e-01  0 
 1.378031e-01  -2.202270e-01  0 
 8.085736e-02  -2.202285e-01  0 
VECTORS displacement_ITER3 FLOAT
 8.839976e-02  -6.507322e-02  0 
 3.220227e-02  -1.212901e-01  0 
 8.846407e-02  -1.213057e-01  0 
 4.624599e-02  -6.497358e-02  0 
 6.030659e-02  -6.501421e-02  0 
 7.435995e-02  -6.504592e-02  0 
 3.219153e-02  -9.312745e-02  0 
 3.219619e-02  -1.072102e-01  0 
 8.842092e-02  -7.911355e-02  0 
 8.844239e-02  -9.316262e-02  0 
 8.845672e-02  -1.072292e-01  0 
 4.626641e-02  -1.212937e-01  0 
 6.033173e-02  -1.212938e-01  0 
 7.439511e-02  -1.212984e-01  0 
 6.191667e-02  -9.018394e-02  0 
 6.984088e-02  -1.107707e-01  0 
 5.084580e-02  -1.108001e-01  0 
 7.746634e-02  -7.937604e-02  0 
 4.316933e-02  -7.932318e-02  0 
 6.033141e-02  -1.086238e-01  0 
 7.753127e-02  -1.022078e-01  0 
 4.315344e-02  -1.022354e-01  0 
 5.347014e-02  -7.453522e-02  0 
 6.402867e-02  -7.867603e-02  0 
 5.041726e-02  -8.825215e-02  0 
 7.254408e-02  -9.052117e-02  0 
 5.494201e-02  -9.972019e-02  0 
 6.587503e-02  -9.953206e-02  0 
 7.973725e-02  -1.125612e-01  0 
 4.093303e-02  -1.125674e-01  0 
VECTORS displacement_ITER4 FLOAT
 5.789865e-02  -2.341433e-02  0 
 9.889036e-03  -7.144100e-02  0 
 5.796893e-02  -7.144981e-02  0 
 2.190273e-02  -2.330430e-02  0 
 3.390587e-02  -2.334833e-02  0 
 4.590935e-02  -2.338413e-02  0 
 9.876821e-03  -4.736650e-02  0 
 9.882260e-03  -5.940443e-02  0 
 5.792179e-02  -3.540264e-02  0 
 5.794565e-02  -4.740165e-02  0 
 5.796128e-02  -5.942057e-02  0 
 2.190920e-02  -7.144338e-02  0 
 3.392959e-02  -7.144096e-02  0 
 4.594699e-02  -7.144339e-02  0 
 3.528533e-02  -4.485202e-02  0 
 4.205576e-02  -6.244592e-02  0 
 2.582358e-02  -6.247346e-02  0 
 4.856664e-02  -3.562202e-02  0 
 1.926485e-02  -3.556774e-02  0 
 3.393019e-02  -6.061177e-02  0 
 4.862628e-02  -5.512800e-02  0 
 1.924914e-02  -5.515335e-02  0 
 2.807011e-02  -3.147540e-02  0 
 3.708965e-02  -3.501820e-02  0 
 2.545997e-02  -4.319985e-02  0 
 4.436471e-02  -4.514132e-02  0 
 2.932554e-02  -5.300196e-02  0 
 3.866735e-02  -5.284104e-02  0 
 5.051165e-02  -6.397627e-02  0 
 1.735116e-02  -6.398486e-02  0 
VECTORS displacement_ITER5 FLOAT
 5.044185e-02  -1.046512e-02  0 
 5.759299e-03  -5.516628e-02  0 
 5.051553e-02  -5.517118e-02  0 
 1.694302e-02  -1.034593e-02  0 
 2.811641e-02  -1.039717e-02  0 
 3.928715e-02  -1.043426e-02  0 
 5.748284e-03  -3.275293e-02  0 
 5.753746e-03  -4.396056e-02  0 
 5.046652e-02  -2.162032e-02  0 
 5.049164e-02  -3.278646e-02  0 
 5.050777e-02  -4.397363e-02  0 
 1.694957e-02  -5.516749e-02  0 
 2.813912e-02  -5.516363e-02  0 
 3.932523e-02  -5.516506e-02  0 
 2.940192e-02  -3.041142e-02  0 
 3.570340e-02  -4.678931e-02  0 
 2.059390e-02  -4.681637e-02  0 
 4.176142e-02  -2.182190e-02  0 
 1.448927e-02  -2.176614e-02  0 
 2.814017e-02  -4.508230e-02  0 
 4.181887e-02  -3.997715e-02  0 
 1.447399e-02  -4.000241e-02  0 
 2.268653e-02  -1.795828e-02  0 
 3.108119e-02  -2.125798e-02  0 
 2.025700e-02  -2.887289e-02  0 
 3.785205e-02  -3.068106e-02  0 
 2.385456e-02  -3.799829e-02  0 
 3.254962e-02  -3.784817e-02  0 
 4.357400e-02  -4.821395e-02  0 
 1.270664e-02  -4.822414e-02  0 
VECTORS displacement_ITER6 FLOAT
 4.450356e-02  -7.831649e-03  0 
 3.297386e-03  -4.905721e-02  0 
 4.457635e-02  -4.906031e-02  0 
 1.360824e-02  -7.713313e-03  0 
 2.391495e-02  -7.764240e-03  0 
 3.421822e-02  -7.801056e-03  0 
 3.288690e-03  -2.838196e-02  0 
 3.294377e-03  -3.872025e-02  0 
 4.452802e-02  -1.811812e-02  0 
 4.455277e-02  -2.841514e-02  0 
 4.456864e-02  -3.873264e-02  0 
 1.361982e-02  -4.905687e-02  0 
 2.393980e-02  -4.905266e-02  0 
 3.425602e-02  -4.905401e-02  0 
 2.510380e-02  -2.622247e-02  0 
 3.091578e-02  -4.132860e-02  0 
 1.698105e-02  -4.135364e-02  0 
 3.650084e-02  -1.830263e-02  0 
 1.135156e-02  -1.824367e-02  0 
 2.394087e-02  -3.975390e-02  0 
 3.655510e-02  -3.504615e-02  0 
 1.133664e-02  -3.506881e-02  0 
 1.890839e-02  -1.473642e-02  0 
 2.665106e-02  -1.778180e-02  0 
 1.667090e-02  -2.480138e-02  0 
 3.289618e-02  -2.647253e-02  0 
 1.998869e-02  -3.321957e-02  0 
 2.800704e-02  -3.308182e-02  0 
 3.817417e-02  -4.264307e-02  0 
 9.706477e-03  -4.265215e-02  0 
VECTORS displacement_ITER7 FLOAT
 4.349915e-02  -6.422541e-03  0 
 3.002989e-03  -4.693868e-02  0 
 4.357141e-02  -4.694203e-02  0 
 1.313150e-02  -6.299799e-03  0 
 2.326529e-02  -6.354925e-03  0 
 3.339081e-02  -6.392592e-03  0 
 2.995390e-03  -2.661907e-02  0 
 3.000557e-03  -3.677917e-02  0 
 4.352339e-02  -1.653205e-02  0 
 4.354792e-02  -2.665185e-02  0 
 4.356372e-02  -3.679184e-02  0 
 1.314791e-02  -4.693796e-02  0 
 2.328996e-02  -4.693405e-02  0 
 3.342855e-02  -4.693570e-02  0 
 2.443377e-02  -2.449671e-02  0 
 3.014572e-02  -3.934305e-02  0 
 1.645111e-02  -3.936733e-02  0 
 3.563435e-02  -1.671323e-02  0 
 1.091777e-02  -1.665455e-02  0 
 2.329089e-02  -3.779533e-02  0 
 3.568801e-02  -3.316863e-02  0 
 1.090396e-02  -3.319047e-02  0 
 1.834463e-02  -1.320789e-02  0 
 2.595451e-02  -1.620105e-02  0 
 1.614582e-02  -2.310011e-02  0 
 3.209200e-02  -2.474239e-02  0 
 1.940669e-02  -3.137343e-02  0 
 2.728702e-02  -3.123805e-02  0 
 3.727927e-02  -4.063498e-02  0 
 9.301976e-03  -4.064332e-02  0 
VECTORS displacement_ITER8 FLOAT
 4.315874e-02  -6.137901e-03  0 
 2.700657e-03  -4.661574e-02  0 
 4.323209e-02  -4.661749e-02  0 
 1.283220e-02  -6.025791e-03  0 
 2.294478e-02  -6.071199e-03  0 
 3.306086e-02  -6.107936e-03  0 
 2.690820e-03  -2.631315e-02  0 
 2.697300e-03  -3.646473e-02  0 
 4.318336e-02  -1.623713e-02  0 
 4.320828e-02  -2.634685e-02  0 
 4.322433e-02  -3.647705e-02  0 
 1.283646e-02  -4.661503e-02  0 
 2.296967e-02  -4.661040e-02  0 
 3.309896e-02  -4.661131e-02  0 
 2.411287e-02  -2.419309e-02  0 
 2.981937e-02  -3.902577e-02  0 
 1.613699e-02  -3.905096e-02  0 
 3.530223e-02  -1.641777e-02  0 
 1.061001e-02  -1.635826e-02  0 
 2.297095e-02  -3.747970e-02  0 
 3.535624e-02  -3.285716e-02  0 
 1.059456e-02  -3.287988e-02  0 
 1.803031e-02  -1.291457e-02  0 
 2.563188e-02  -1.590567e-02  0 
 1.583320e-02  -2.279737e-02  0 
 3.176358e-02  -2.443891e-02  0 
 1.909058e-02  -3.106352e-02  0 
 2.696341e-02  -3.092826e-02  0 
 3.694601e-02  -4.031646e-02  0 
 8.993960e-03  -4.032612e-02  0 
VECTORS displacement_ITER9 FLOAT
 4.315082e-02  -5.992992e-03  0 
 2.838352e-03  -4.632524e-02  0 
 4.322411e-02  -4.632716e-02  0 
 1.293178e-02  -5.879190e-03  0 
 2.300926e-02  -5.925314e-03  0 
 3.308913e-02  -5.962565e-03  0 
 2.830375e-03  -2.609741e-02  0 
 2.835933e-03  -3.621099e-02  0 
 4.317542e-02  -1.605574e-02  0 
 4.320035e-02  -2.612910e-02  0 
 4.321636e-02  -3.622301e-02  0 
 1.293782e-02  -4.632426e-02  0 
 2.303437e-02  -4.631989e-02  0 
 3.312727e-02  -4.632097e-02  0 
 2.417339e-02  -2.398315e-02  0 
 2.985941e-02  -3.876261e-02  0 
 1.622630e-02  -3.878754e-02  0 
 3.532268e-02  -1.623563e-02  0 
 1.071872e-02  -1.617539e-02  0 
 2.303558e-02  -3.722206e-02  0 
 3.537646e-02  -3.261609e-02  0 
 1.070393e-02  -3.263875e-02  0 
 1.811230e-02  -1.274450e-02  0 
 2.568699e-02  -1.572523e-02  0 
 1.592339e-02  -2.259257e-02  0 
 3.179673e-02  -2.422802e-02  0 
 1.916913e-02  -3.082898e-02  0 
 2.701371e-02  -3.069417e-02  0 
 3.696054e-02  -4.004867e-02  0 
 9.109191e-03  -4.005793e-02  0 
VECTORS displacement_ITER10 FLOAT
 4.312567e-02  -5.911629e-03  0 
 2.764665e-03  -4.629246e-02  0 
 4.319859e-02  -4.629552e-02  0 
 1.286393e-02  -5.793846e-03  0 
 2.295908e-02  -5.843692e-03  0 
 3.305158e-02  -5.881344e-03  0 
 2.756486e-03  -2.604220e-02  0 
 2.761966e-03  -3.616706e-02  0 
 4.315016e-02  -1.598700e-02  0 
 4.317493e-02  -2.607282e-02  0 
 4.319086e-02  -3.617908e-02  0 
 1.287556e-02  -4.629217e-02  0 
 2.298427e-02  -4.628812e-02  0 
 3.308947e-02  -4.628927e-02  0 
 2.412466e-02  -2.392434e-02  0 
 2.981762e-02  -3.872171e-02  0 
 1.616790e-02  -3.874663e-02  0 
 3.528769e-02  -1.616728e-02  0 
 1.065387e-02  -1.610612e-02  0 
 2.298550e-02  -3.717926e-02  0 
 3.534136e-02  -3.256780e-02  0 
 1.063889e-02  -3.259056e-02  0 
 1.805539e-02  -1.267244e-02  0 
 2.563999e-02  -1.565664e-02  0 
 1.586469e-02  -2.253189e-02  0 
 3.175724e-02  -2.416958e-02  0 
 1.911437e-02  -3.077845e-02  0 
 2.696844e-02  -3.064349e-02  0 
 3.692739e-02  -4.000939e-02  0 
 9.042362e-03  -4.001842e-02  0 
VECTORS displacement_ITER11 FLOAT
 4.312139e-02  -5.905930e-03  0 
 2.771964e-03  -4.627493e-02  0 
 4.319357e-02  -4.627714e-02  0 
 1.285642e-02  -5.779021e-03  0 
 2.296076e-02  -5.837881e-03  0 
 3.305003e-02  -5.875601e-03  0 
 2.763506e-03  -2.602971e-02  0 
 2.769232e-03  -3.615202e-02  0 
 4.314560e-02  -1.597860e-02  0 
 4.317006e-02  -2.606145e-02  0 
 4.318586e-02  -3.616425e-02  0 
 1.288032e-02  -4.627445e-02  0 
 2.298626e-02  -4.626991e-02  0 
 3.308806e-02  -4.627081e-02  0 
 2.412601e-02  -2.391311e-02  0 
 2.981737e-02  -3.870580e-02  0 
 1.617190e-02  -3.873086e-02  0 
 3.528536e-02  -1.615912e-02  0 
 1.066127e-02  -1.609643e-02  0 
 2.298757e-02  -3.716374e-02  0 
 3.533897e-02  -3.255424e-02  0 
 1.064429e-02  -3.257653e-02  0 
 1.805713e-02  -1.266700e-02  0 
 2.564013e-02  -1.564926e-02  0 
 1.586916e-02  -2.251998e-02  0 
 3.175583e-02  -2.415893e-02  0 
 1.911777e-02  -3.076467e-02  0 
 2.696903e-02  -3.063019e-02  0 
 3.692454e-02  -3.999319e-02  0 
 9.048142e-03  -4.000242e-02  0 
VECTORS displacement_ITER12 FLOAT
 4.312153e-02  -5.904870e-03  0 
 2.772232e-03  -4.627368e-02  0 
 4.319361e-02  -4.627614e-02  0 
 1.285548e-02  -5.776352e-03  0 
 2.296110e-02  -5.836830e-03  0 
 3.305020e-02  -5.874558e-03  0 
 2.763716e-03  -2.602782e-02  0 
 2.769468e-03  -3.615068e-02  0 
 4.314571e-02  -1.597755e-02  0 
 4.317014e-02  -2.606039e-02  0 
 4.318591e-02  -3.616323e-02  0 
 1.288060e-02  -4.627315e-02  0 
 2.298637e-02  -4.626871e-02  0 
 3.308807e-02  -4.626979e-02  0 
 2.412603e-02  -2.391228e-02  0 
 2.981735e-02  -3.870481e-02  0 
 1.617211e-02  -3.872963e-02  0 
 3.528549e-02  -1.615808e-02  0 
 1.066112e-02  -1.609648e-02  0 
 2.298758e-02  -3.716272e-02  0 
 3.533900e-02  -3.255324e-02  0 
 1.064461e-02  -3.257521e-02  0 
 1.805735e-02  -1.266633e-02  0 
 2.564030e-02  -1.564828e-02  0 
 1.586900e-02  -2.251936e-02  0 
 3.175591e-02  -2.415794e-02  0 
 1.911773e-02  -3.076376e-02  0 
 2.696902e-02  -3.062927e-02  0 
 3.692456e-02  -3.999218e-02  0 
 9.048443e-03  -4.000115e-02  0 
VECTORS displacement_ITER13 FLOAT
 4.312161e-02  -5.905063e-03  0 
 2.772205e-03  -4.627397e-02  0 
 4.319369e-02  -4.627640e-02  0 
 1.285553e-02  -5.776583e-03  0 
 2.296115e-02  -5.837030e-03  0 
 3.305026e-02  -5.874751e-03  0 
 2.763671e-03  -2.602801e-02  0 
 2.769438e-03  -3.615092e-02  0 
 4.314579e-02  -1.597776e-02  0 
 4.317023e-02  -2.606062e-02  0 
 4.318599e-02  -3.616347e-02  0 
 1.288062e-02  -4.627343e-02  0 
 2.298642e-02  -4.626898e-02  0 
 3.308814e-02  -4.627005e-02  0 
 2.412608e-02  -2.391249e-02  0 
 2.981742e-02  -3.870506e-02  0 
 1.617214e-02  -3.872988e-02  0 
 3.528555e-02  -1.615829e-02  0 
 1.066117e-02  -1.609668e-02  0 
 2.298764e-02  -3.716297e-02  0 
 3.533908e-02  -3.255348e-02  0 
 1.064462e-02  -3.257544e-02  0 
 1.805740e-02  -1.266653e-02  0 
 2.564035e-02  -1.564848e-02  0 
 1.586904e-02  -2.251955e-02  0 
 3.175597e-02  -2.415816e-02  0 
 1.911778e-02  -3.076398e-02  0 
 2.696908e-02  -3.062949e-02  0 
 3.692464e-02  -3.999243e-02  0 
 9.048447e-03  -4.000141e-02  0 
VECTORS displacement_ITER14 FLOAT
 4.312157e-02  -5.905076e-03  0 
 2.772176e-03  -4.627398e-02  0 
 4.319366e-02  -4.627641e-02  0 
 1.285550e-02  -5.776595e-03  0 
 2.296112e-02  -5.837043e-03  0 
 3.305023e-02  -5.874764e-03  0 
 2.763641e-03  -2.602802e-02  0 
 2.769408e-03  -3.615093e-02  0 
 4.314576e-02  -1.597777e-02  0 
 4.317019e-02  -2.606063e-02  0 
 4.318596e-02  -3.616348e-02  0 
 1.288059e-02  -4.627344e-02  0 
 2.298639e-02  -4.626899e-02  0 
 3.308811e-02  -4.627006e-02  0 
 2.412605e-02  -2.391250e-02  0 
 2.981739e-02  -3.870507e-02  0 
 1.617211e-02  -3.872989e-02  0 
 3.528552e-02  -1.615830e-02  0 
 1.066114e-02  -1.609669e-02  0 
 2.298761e-02  -3.716298e-02  0 
 3.533905e-02  -3.255349e-02  0 
 1.064459e-02  -3.257546e-02  0 
 1.805737e-02  -1.266655e-02  0 
 2.564032e-02  -1.564850e-02  0 
 1.586901e-02  -2.251956e-02  0 
 3.175594e-02  -2.415817e-02  0 
 1.911775e-02  -3.076399e-02  0 
 2.696905e-02  -3.062950e-02  0 
 3.692461e-02  -3.999244e-02  0 
 9.048417e-03  -4.000142e-02  0 
CELL_DATA 43
TENSORS element_stresses FLOAT
 2.506277e-03  -4.869704e-02  0 
 -4.869704e-02  -3.526418e-03  0 
 0  0  0 

 -2.492801e-03  -3.857279e-02  0 
 -3.857279e-02  1.706941e-02  0 
 0  0  0 

 7.168063e-02  -1.539253e-02  0 
 -1.539253e-02  -8.682830e-02  0 
 0  0  0 

 -7.714060e-03  -5.708869e-02  0 
 -5.708869e-02  -7.686837e-03  0 
 0  0  0 

 -8.725246e-04  -3.875160e-02  0 
 -3.875160e-02  1.511828e-02  0 
 0  0  0 

 -1.601602e-02  -5.229541e-02  0 
 -5.229541e-02  7.210078e-03  0 
 0  0  0 

 6.051483e-03  -4.832501e-02  0 
 -4.832501e-02  -6.808205e-03  0 
 0  0  0 

 4.299149e-02  -2.106567e-02  0 
 -2.106567e-02  -2.288939e-01  0 
 0  0  0 

 3.488847e-02  -1.830665e-03  0 
 -1.830665e-03  -1.404161e-01  0 
 0  0  0 

 1.825312e-02  -2.488713e-02  0 
 -2.488713e-02  -1.604934e-02  0 
 0  0  0 

 5.152130e-02  -1.883136e-02  0 
 -1.883136e-02  -3.844208e-02  0 
 0  0  0 

 5.059476e-03  -5.208888e-02  0 
 -5.208888e-02  -2.210820e-02  0 
 0  0  0 

 -4.652246e-03  -3.099094e-02  0 
 -3.099094e-02  1.119412e-02  0 
 0  0  0 

 2.591324e-02  -3.055738e-02  0 
 -3.055738e-02  -7.396203e-02  0 
 0  0  0 

 5.755018e-03  -4.589998e-02  0 
 -4.589998e-02  -1.381184e-01  0 
 0  0  0 

 7.930547e-03  -4.665712e-02  0 
 -4.665712e-02  -1.954018e-02  0 
 0  0  0 

 -4.929881e-03  -6.216667e-02  0 
 -6.216667e-02  -2.375047e-02  0 
 0  0  0 

 4.322848e-02  2.411651e-02  0 
 2.411651e-02  -7.242035e-02  0 
 0  0  0 

 6.919311e-02  -6.616174e-02  0 
 -6.616174e-02  -1.456539e-01  0 
 0  0  0 

 -2.851819e-02  -5.832243e-02  0 
 -5.832243e-02  -2.569933e-02  0 
 0  0  0 

 -3.097141e-03  -2.355058e-02  0 
 -2.355058e-02  -7.401459e-03  0 
 0  0  0 

 -1.251887e-02  -7.595191e-02  0 
 -7.595191e-02  -6.496463e-02  0 
 0  0  0 

 -1.871035e-02  -4.526201e-02  0 
 -4.526201e-02  3.555153e-03  0 
 0  0  0 

 4.362438e-02  -6.707003e-03  0 
 -6.707003e-03  -4.563493e-02  0 
 0  0  0 

 2.364535e-02  -3.385829e-02  0 
 -3.385829e-02  -4.524826e-02  0 
 0  0  0 

 7.076698e-03  -5.151278e-02  0 
 -5.151278e-02  -4.843145e-02  0 
 0  0  0 

 2.422380e-02  -3.029559e-02  0 
 -3.029559e-02  -2.387633e-02  0 
 0  0  0 

 4.447832e-02  -1.235802e-02  0 
 -1.235802e-02  -1.079056e-01  0 
 0  0  0 

 7.095326e-02  1.587557e-02  0 
 1.587557e-02  -8.600359e-02  0 
 0  0  0 

 2.123267e-02  -3.180981e-02  0 
 -3.180981e-02  -3.192222e-02  0 
 0  0  0 

 -6.122123e-04  -4.720127e-02  0 
 -4.720127e-02  -2.219623e-02  0 
 0  0  0 

 1.245238e-02  -3.257699e-02  0 
 -3.257699e-02  -2.167575e-02  0 
 0  0  0 

 8.508195e-03  -3.534954e-02  0 
 -3.534954e-02  -8.538276e-03  0 
 0  0  0 

 -1.555124e-03  -3.429507e-02  0 
 -3.429507e-02  2.925694e-03  0 
 0  0  0 

 -9.926166e-04  -3.482488e-02  0 
 -3.482488e-02  1.873280e-03  0 
 0  0  0 

 1.292668e-02  -3.353192e-02  0 
 -3.353192e-02  -3.277201e-02  0 
 0  0  0 

 1.889099e-02  -4.146084e-02  0 
 -4.146084e-02  -1.828697e-02  0 
 0  0  0 

 -1.359149e-03  -2.428329e-02  0 
 -2.428329e-02  -1.763075e-02  0 
 0  0  0 

 2.011722e-03  -3.233476e-02  0 
 -3.233476e-02  4.350199e-03  0 
 0  0  0 

 3.961579e-02  2.672492e-03  0 
 2.672492e-03  -1.129677e-01  0 
 0  0  0 

 1.082605e-02  -2.745993e-02  0 
 -2.745993e-02  -6.915914e-02  0 
 0  0  0 

 1.665129e-02  -2.857346e-02  0 
 -2.857346e-02  -4.648896e-02  0 
 0  0  0 

 1.785610e-02  -4.583631e-02  0 
 -4.583631e-02  -9.052847e-02  0 
 0  0  0 

TENSORS element_stresses FLOAT
 2.506277e-03  -4.869704e-02  0 
 -4.869704e-02  -3.526418e-03  0 
 0  0  0 

 -2.492801e-03  -3.857279e-02  0 
 -3.857279e-02  1.706941e-02  0 
 0  0  0 

 7.168063e-02  -1.539253e-02  0 
 -1.539253e-02  -8.682830e-02  0 
 0  0  0 

 -7.714060e-03  -5.708869e-02  0 
 -5.708869e-02  -7.686837e-03  0 
 0  0  0 

 -8.725246e-04  -3.875160e-02  0 
 -3.875160e-02  1.511828e-02  0 
 0  0  0 

 -1.601602e-02  -5.229541e-02  0 
 -5.229541e-02  7.210078e-03  0 
 0  0  0 

 6.051483e-03  -4.832501e-02  0 
 -4.832501e-02  -6.808205e-03  0 
 0  0  0 

 4.299149e-02  -2.106567e-02  0 
 -2.106567e-02  -2.288939e-01  0 
 0  0  0 

 3.488847e-02  -1.830665e-03  0 
 -1.830665e-03  -1.404161e-01  0 
 0  0  0 

 1.825312e-02  -2.488713e-02  0 
 -2.488713e-02  -1.604934e-02  0 
 0  0  0 

 5.152130e-02  -1.883136e-02  0 
 -1.883136e-02  -3.844208e-02  0 
 0  0  0 

 5.059476e-03  -5.208888e-02  0 
 -5.208888e-02  -2.210820e-02  0 
 0  0  0 

 -4.652246e-03  -3.099094e-02  0 
 -3.099094e-02  1.119412e-02  0 
 0  0  0 

 2.591324e-02  -3.055738e-02  0 
 -3.055738e-02  -7.396203e-02  0 
 0  0  0 

 5.755018e-03  -4.589998e-02  0 
 -4.589998e-02  -1.381184e-01  0 
 0  0  0 

 7.930547e-03  -4.665712e-02  0 
 -4.665712e-02  -1.954018e-02  0 
 0  0  0 

 -4.929881e-03  -6.216667e-02  0 
 -6.216667e-02  -2.375047e-02  0 
 0  0  0 

 4.322848e-02  2.411651e-02  0 
 2.411651e-02  -7.242035e-02  0 
 0  0  0 

 6.919311e-02  -6.616174e-02  0 
 -6.616174e-02  -1.456539e-01  0 
 0  0  0 

 -2.851819e-02  -5.832243e-02  0 
 -5.832243e-02  -2.569933e-02  0 
 0  0  0 

 -3.097141e-03  -2.355058e-02  0 
 -2.355058e-02  -7.401459e-03  0 
 0  0  0 

 -1.251887e-02  -7.595191e-02  0 
 -7.595191e-02  -6.496463e-02  0 
 0  0  0 

 -1.871035e-02  -4.526201e-02  0 
 -4.526201e-02  3.555153e-03  0 
 0  0  0 

 4.362438e-02  -6.707003e-03  0 
 -6.707003e-03  -4.563493e-02  0 
 0  0  0 

 2.364535e-02  -3.385829e-02  0 
 -3.385829e-02  -4.524826e-02  0 
 0  0  0 

 7.076698e-03  -5.151278e-02  0 
 -5.151278e-02  -4.843145e-02  0 
 0  0  0 

 2.422380e-02  -3.029559e-02  0 
 -3.029559e-02  -2.387633e-02  0 
 0  0  0 

 4.447832e-02  -1.235802e-02  0 
 -1.235802e-02  -1.079056e-01  0 
 0  0  0 

 7.095326e-02  1.587557e-02  0 
 1.587557e-02  -8.600359e-02  0 
 0  0  0 

 2.123267e-02  -3.180981e-02  0 
 -3.180981e-02  -3.192222e-02  0 
 0  0  0 

 -6.122123e-04  -4.720127e-02  0 
 -4.720127e-02  -2.219623e-02  0 
 0  0  0 

 1.245238e-02  -3.257699e-02  0 
 -3.257699e-02  -2.167575e-02  0 
 0  0  0 

 8.508195e-03  -3.534954e-02  0 
 -3.534954e-02  -8.538276e-03  0 
 0  0  0 

 -1.555124e-03  -3.429507e-02  0 
 -3.429507e-02  2.925694e-03  0 
 0  0  0 

 -9.926166e-04  -3.482488e-02  0 
 -3.482488e-02  1.873280e-03  0 
 0  0  0 

 1.292668e-02  -3.353192e-02  0 
 -3.353192e-02  -3.277201e-02  0 
 0  0  0 

 1.889099e-02  -4.146084e-02  0 
 -4.146084e-02  -1.828697e-02  0 
 0  0  0 

 -1.359149e-03  -2.428329e-02  0 
 -2.428329e-02  -1.763075e-02  0 
 0  0  0 

 2.011722e-03  -3.233476e-02  0 
 -3.233476e-02  4.350199e-03  0 
 0  0  0 

 3.961579e-02  2.672492e-03  0 
 2.672492e-03  -1.129677e-01  0 
 0  0  0 

 1.082605e-02  -2.745993e-02  0 
 -2.745993e-02  -6.915914e-02  0 
 0  0  0 

 1.665129e-02  -2.857346e-02  0 
 -2.857346e-02  -4.648896e-02  0 
 0  0  0 

 1.785610e-02  -4.583631e-02  0 
 -4.583631e-02  -9.052847e-02  0 
 0  0  0 

