# vtk DataFile Version 3.1
this is an vtk file created by FEMAC
ASCII
DATASET UNSTRUCTURED_GRID
POINTS 32 FLOAT
0.000000 5.000000 0.000000
0.000000 6.000000 0.000000
0.250000 5.000000 0.000000
0.500000 5.000000 0.000000
0.750000 5.000000 0.000000
0.000000 4.500000 0.000000
0.000000 4.750000 0.000000
0.250000 6.000000 0.000000
0.500000 6.000000 0.000000
0.750000 6.000000 0.000000
0.000000 5.250000 0.000000
0.000000 5.500000 0.000000
0.000000 5.750000 0.000000
0.272476 4.537430 0.000000
0.660302 4.785301 0.000000
0.825957 4.628272 0.000000
0.594871 4.497465 0.000000
0.400442 4.782533 0.000000
0.847252 4.832715 0.000000
0.153820 4.761660 0.000000
0.272476 5.537430 0.000000
0.660302 5.785301 0.000000
0.660045 5.212404 0.000000
0.162952 5.171693 0.000000
0.825570 5.361866 0.000000
0.825957 5.628272 0.000000
0.594871 5.497465 0.000000
0.400442 5.782533 0.000000
0.372389 5.253823 0.000000
0.165804 5.339408 0.000000
0.847123 5.164854 0.000000
0.153820 5.761660 0.000000
CELLS 43 172 
3 3 14  4
3 17 14  3
3 16 17 13
3 16 14 17
3 2 17  3
3 16 15 14
3 18  4 14
3 14 15 18
3 19  2  0
3 6 19  0
3 5 19  6
3 17 19 13
3 19 17  2
3 5 13 19
3 8 21  9
3 22  3  4
3 2 23  0
3 23 10  0
3 26 22 24
3 27 21  8
3 22 28  3
3 26 27 20
3 26 21 27
3 28 26 20
3 22 26 28
3 28  2  3
3 23  2 28
3 7 27  8
3 26 25 21
3 24 25 26
3 23 29 10
3 4 30 22
3 29 28 20
3 23 28 29
3 24 22 30
3 29 11 10
3 11 29 20
3 31  7  1
3 12 31  1
3 11 31 12
3 27 31 20
3 31 27  7
3 11 20 31
CELL_TYPES 43
5 5 5 5 5 5 5 5 5 5 5 5 5 5 5 5 5 5 5 5 5 5 5 5 5 5 5 5 5 5 5 5 5 5 5 5 5 5 5 5 5 5 5 
POINT_DATA 32
VECTORS displacement_ITER1 FLOAT
 0  0  0 
 0  0  0 
 4.682181e-05  -3.220074e-05  0 
 9.436025e-05  -9.602819e-05  0 
 1.444139e-04  -2.193125e-04  0 
 0  0  0 
 0  0  0 
 3.808501e-02  -3.552526e-02  0 
 7.915524e-02  -6.561458e-02  0 
 1.303428e-01  -1.219763e-01  0 
 0  0  0 
 0  0  0 
 0  0  0 
 -2.555862e-05  -2.098692e-05  0 
 3.244228e-05  -1.358986e-04  0 
 -1.912376e-05  -1.935344e-04  0 
 -5.631778e-05  -1.076563e-04  0 
 2.048904e-05  -4.326368e-05  0 
 7.439688e-05  -2.356750e-04  0 
 4.283869e-06  4.419453e-06  0 
 1.194034e-02  -1.382986e-03  0 
 6.498363e-02  -5.723813e-02  0 
 1.515861e-02  -9.591928e-03  0 
 2.463149e-03  2.280520e-03  0 
 3.535162e-02  -3.369298e-02  0 
 6.460690e-02  -5.919466e-02  0 
 3.006844e-02  -2.019325e-02  0 
 3.609468e-02  -2.467489e-02  0 
 6.640947e-03  1.877715e-03  0 
 3.532733e-03  2.514795e-03  0 
 2.382217e-02  -2.396967e-02  0 
 9.133782e-03  -2.642069e-03  0 
VECTORS displacement_ITER2 FLOAT
 0  0  0 
 0  0  0 
 1.071944e-04  -7.103182e-05  0 
 2.231621e-04  -2.014797e-04  0 
 3.439419e-04  -4.505155e-04  0 
 0  0  0 
 0  0  0 
 1.965031e-02  -1.818637e-02  0 
 4.094169e-02  -3.063874e-02  0 
 6.739705e-02  -5.163959e-02  0 
 0  0  0 
 0  0  0 
 0  0  0 
 -5.945752e-05  -4.147385e-05  0 
 6.954492e-05  -2.919987e-04  0 
 -7.395118e-05  -4.620508e-04  0 
 -1.447627e-04  -2.483644e-04  0 
 4.889049e-05  -8.453110e-05  0 
 1.476186e-04  -5.263378e-04  0 
 9.990974e-06  1.408708e-05  0 
 7.922748e-03  5.348392e-04  0 
 3.699217e-02  -2.333751e-02  0 
 1.074301e-02  -2.755415e-03  0 
 2.211384e-03  2.049600e-03  0 
 2.231319e-02  -1.279898e-02  0 
 3.756141e-02  -2.361775e-02  0 
 1.931167e-02  -6.542786e-03  0 
 2.068435e-02  -1.073714e-02  0 
 5.656882e-03  2.718935e-03  0 
 2.826640e-03  2.136784e-03  0 
 1.541578e-02  -9.577403e-03  0 
 5.356454e-03  -1.273123e-03  0 
VECTORS displacement_ITER3 FLOAT
 0  0  0 
 0  0  0 
 1.703573e-04  -1.276409e-04  0 
 3.585888e-04  -2.977725e-04  0 
 5.571980e-04  -6.018801e-04  0 
 0  0  0 
 0  0  0 
 5.296890e-03  -4.928429e-03  0 
 1.101517e-02  -7.570301e-03  0 
 1.815409e-02  -1.149970e-02  0 
 0  0  0 
 0  0  0 
 0  0  0 
 -3.780999e-05  -2.060267e-05  0 
 1.916290e-04  -3.692847e-04  0 
 3.335339e-05  -5.547205e-04  0 
 -9.761377e-05  -2.681352e-04  0 
 1.176602e-04  -1.095164e-04  0 
 3.283727e-04  -6.806732e-04  0 
 2.535604e-05  1.671794e-05  0 
 2.570764e-03  3.553420e-04  0 
 1.081705e-02  -4.837609e-03  0 
 3.533173e-03  -5.752475e-04  0 
 8.417022e-04  6.569949e-04  0 
 6.831523e-03  -2.782801e-03  0 
 1.114392e-02  -4.966236e-03  0 
 6.113191e-03  -9.929990e-04  0 
 6.086337e-03  -2.501749e-03  0 
 2.072571e-03  9.672239e-04  0 
 1.016864e-03  6.993340e-04  0 
 4.715298e-03  -2.385367e-03  0 
 1.607333e-03  -3.651602e-04  0 
VECTORS displacement_ITER4 FLOAT
 0  0  0 
 0  0  0 
 1.643292e-04  -1.213792e-04  0 
 3.513460e-04  -2.661548e-04  0 
 5.538759e-04  -5.236617e-04  0 
 0  0  0 
 0  0  0 
 1.162065e-03  -1.179922e-03  0 
 2.359393e-03  -1.409320e-03  0 
 4.100695e-03  -1.887842e-03  0 
 0  0  0 
 0  0  0 
 0  0  0 
 -1.617899e-05  -2.206250e-06  0 
 2.064454e-04  -3.146945e-04  0 
 7.134451e-05  -4.765503e-04  0 
 -5.452528e-05  -2.158868e-04  0 
 1.265074e-04  -8.834117e-05  0 
 3.357404e-04  -6.072947e-04  0 
 2.825235e-05  1.673216e-05  0 
 8.828072e-04  1.057722e-04  0 
 2.845653e-03  -2.385078e-04  0 
 1.416467e-03  -3.763994e-05  0 
 3.846090e-04  1.977326e-04  0 
 2.311510e-03  -1.145390e-04  0 
 3.242405e-03  -7.010717e-05  0 
 2.083586e-03  2.010834e-04  0 
 1.621627e-03  -4.572527e-04  0 
 9.243191e-04  3.217424e-04  0 
 4.205253e-04  1.850834e-04  0 
 1.670232e-03  -4.042393e-04  0 
 4.511725e-04  -1.654740e-04  0 
VECTORS displacement_ITER5 FLOAT
 0  0  0 
 0  0  0 
 1.365121e-04  -9.323204e-05  0 
 3.011435e-04  -2.006893e-04  0 
 4.932273e-04  -4.196351e-04  0 
 0  0  0 
 0  0  0 
 3.972972e-04  -6.529908e-04  0 
 5.887627e-04  -6.925186e-04  0 
 6.498482e-04  -1.306818e-04  0 
 0  0  0 
 0  0  0 
 0  0  0 
 -2.576524e-06  1.582526e-05  0 
 1.850197e-04  -2.244313e-04  0 
 6.526447e-05  -3.586932e-04  0 
 -3.089459e-05  -1.456211e-04  0 
 1.131916e-04  -5.151420e-05  0 
 3.064907e-04  -4.728624e-04  0 
 2.573831e-05  1.879628e-05  0 
 4.456406e-04  -1.440982e-04  0 
 1.165395e-03  -2.367263e-04  0 
 8.447287e-04  -2.586257e-04  0 
 2.078113e-04  3.834652e-05  0 
 1.308564e-03  -4.200987e-04  0 
 1.521624e-03  -1.571763e-04  0 
 1.117240e-03  -1.738653e-04  0 
 6.719895e-04  -4.808155e-04  0 
 5.187541e-04  1.642411e-05  0 
 2.161559e-04  -2.218942e-06  0 
 1.016985e-03  -5.988057e-04  0 
 1.906135e-04  -2.196762e-04  0 
VECTORS displacement_ITER6 FLOAT
 0  0  0 
 0  0  0 
 1.318833e-04  -1.274096e-04  0 
 2.633774e-04  -2.324804e-04  0 
 4.217133e-04  -4.183952e-04  0 
 0  0  0 
 0  0  0 
 5.868329e-04  -6.899075e-04  0 
 1.109674e-03  -1.075736e-03  0 
 1.579899e-03  -1.297601e-03  0 
 0  0  0 
 0  0  0 
 0  0  0 
 1.653193e-05  -5.949217e-05  0 
 1.756741e-04  -2.456580e-04  0 
 7.276896e-05  -3.700898e-04  0 
 1.099610e-05  -2.090254e-04  0 
 1.117416e-04  -1.111849e-04  0 
 2.775604e-04  -3.977838e-04  0 
 3.180869e-05  -1.768358e-05  0 
 3.146077e-04  -1.096411e-04  0 
 1.262409e-03  -8.080289e-04  0 
 5.529301e-04  -2.426791e-04  0 
 1.448825e-04  -2.008353e-05  0 
 9.244220e-04  -3.784238e-04  0 
 1.347325e-03  -5.746016e-04  0 
 7.801366e-04  -2.743049e-04  0 
 6.848663e-04  -5.040176e-04  0 
 3.323155e-04  -5.487787e-05  0 
 1.479517e-04  -2.064232e-05  0 
 6.224129e-04  -3.210871e-04  0 
 1.829019e-04  -1.353162e-04  0 
VECTORS displacement_ITER7 FLOAT
 0  0  0 
 0  0  0 
 1.171158e-04  -1.136153e-04  0 
 2.359200e-04  -1.868529e-04  0 
 3.842807e-04  -3.203523e-04  0 
 0  0  0 
 0  0  0 
 7.892708e-04  -8.440596e-04  0 
 1.559584e-03  -1.370285e-03  0 
 2.400026e-03  -1.986378e-03  0 
 0  0  0 
 0  0  0 
 0  0  0 
 3.881782e-05  -3.101800e-05  0 
 1.826066e-04  -1.732590e-04  0 
 1.142248e-04  -2.592556e-04  0 
 6.560319e-05  -1.363712e-04  0 
 1.148735e-04  -8.420618e-05  0 
 2.748767e-04  -2.912357e-04  0 
 3.229791e-05  -1.602237e-05  0 
 3.736245e-04  -8.351123e-05  0 
 1.594350e-03  -1.038059e-03  0 
 6.136604e-04  -2.317012e-04  0 
 1.524008e-04  7.482033e-06  0 
 1.093637e-03  -4.983319e-04  0 
 1.685368e-03  -8.811419e-04  0 
 9.223579e-04  -3.311583e-04  0 
 8.736951e-04  -5.795697e-04  0 
 3.528384e-04  -9.666712e-06  0 
 1.622469e-04  1.191164e-05  0 
 7.458312e-04  -3.717686e-04  0 
 2.307408e-04  -1.277324e-04  0 
VECTORS displacement_ITER8 FLOAT
 0  0  0 
 0  0  0 
 1.060994e-04  -1.043901e-04  0 
 2.112072e-04  -1.702640e-04  0 
 3.491858e-04  -2.998721e-04  0 
 0  0  0 
 0  0  0 
 6.588028e-04  -8.065116e-04  0 
 1.200492e-03  -1.172293e-03  0 
 1.577647e-03  -1.040916e-03  0 
 0  0  0 
 0  0  0 
 0  0  0 
 3.342409e-05  -3.364484e-05  0 
 1.588163e-04  -1.584942e-04  0 
 9.828202e-05  -2.261245e-04  0 
 5.988713e-05  -1.346413e-04  0 
 1.022319e-04  -8.138723e-05  0 
 2.471677e-04  -2.694971e-04  0 
 2.904453e-05  -1.612609e-05  0 
 3.844071e-04  -1.228880e-04  0 
 1.442298e-03  -8.924941e-04  0 
 6.570776e-04  -2.586439e-04  0 
 1.540294e-04  1.388228e-05  0 
 1.176717e-03  -6.006527e-04  0 
 1.608836e-03  -8.430203e-04  0 
 9.648155e-04  -3.726601e-04  0 
 8.050769e-04  -5.998044e-04  0 
 3.694568e-04  -1.012699e-05  0 
 1.633338e-04  4.220268e-06  0 
 8.301397e-04  -4.900262e-04  0 
 2.143168e-04  -1.699049e-04  0 
VECTORS displacement_ITER9 FLOAT
 0  0  0 
 0  0  0 
 1.035556e-04  -1.006697e-04  0 
 2.078007e-04  -1.639440e-04  0 
 3.473183e-04  -2.938282e-04  0 
 0  0  0 
 0  0  0 
 6.276466e-04  -7.536209e-04  0 
 1.163951e-03  -1.113782e-03  0 
 1.651082e-03  -1.251271e-03  0 
 0  0  0 
 0  0  0 
 0  0  0 
 3.384749e-05  -3.199764e-05  0 
 1.562299e-04  -1.501160e-04  0 
 9.740123e-05  -2.134942e-04  0 
 5.957095e-05  -1.265122e-04  0 
 1.002368e-04  -7.666751e-05  0 
 2.454134e-04  -2.598914e-04  0 
 2.867205e-05  -1.534100e-05  0 
 3.678544e-04  -1.073213e-04  0 
 1.361084e-03  -8.026479e-04  0 
 6.194703e-04  -2.309440e-04  0 
 1.500856e-04  1.573771e-05  0 
 1.107931e-03  -5.308922e-04  0 
 1.535818e-03  -7.140009e-04  0 
 9.245282e-04  -3.148580e-04  0 
 7.584151e-04  -5.494035e-04  0 
 3.569380e-04  1.111007e-06  0 
 1.578883e-04  8.042159e-06  0 
 7.683086e-04  -4.309520e-04  0 
 2.026649e-04  -1.551726e-04  0 
VECTORS displacement_ITER10 FLOAT
 0  0  0 
 0  0  0 
 1.026115e-04  -9.924340e-05  0 
 2.065217e-04  -1.620178e-04  0 
 3.456660e-04  -2.910799e-04  0 
 0  0  0 
 0  0  0 
 6.269803e-04  -7.570144e-04  0 
 1.157916e-03  -1.119491e-03  0 
 1.632708e-03  -1.240727e-03  0 
 0  0  0 
 0  0  0 
 0  0  0 
 3.334734e-05  -3.165910e-05  0 
 1.553293e-04  -1.479427e-04  0 
 9.725040e-05  -2.099733e-04  0 
 5.797277e-05  -1.239910e-04  0 
 9.932062e-05  -7.501437e-05  0 
 2.442921e-04  -2.564384e-04  0 
 2.846216e-05  -1.492145e-05  0 
 3.675899e-04  -1.168078e-04  0 
 1.343907e-03  -8.236616e-04  0 
 6.376350e-04  -2.292589e-04  0 
 1.505640e-04  1.549800e-05  0 
 1.134860e-03  -5.300858e-04  0 
 1.524160e-03  -7.108150e-04  0 
 9.283452e-04  -3.330975e-04  0 
 7.515289e-04  -5.623548e-04  0 
 3.613911e-04  -3.394150e-06  0 
 1.583565e-04  4.187914e-06  0 
 7.954491e-04  -4.271747e-04  0 
 2.012532e-04  -1.597419e-04  0 
VECTORS displacement_ITER11 FLOAT
 0  0  0 
 0  0  0 
 1.024468e-04  -9.906532e-05  0 
 2.060710e-04  -1.617374e-04  0 
 3.450205e-04  -2.906199e-04  0 
 0  0  0 
 0  0  0 
 6.289676e-04  -7.602015e-04  0 
 1.160569e-03  -1.122140e-03  0 
 1.635615e-03  -1.242790e-03  0 
 0  0  0 
 0  0  0 
 0  0  0 
 3.300734e-05  -3.153935e-05  0 
 1.549654e-04  -1.476195e-04  0 
 9.716480e-05  -2.092409e-04  0 
 5.792447e-05  -1.238441e-04  0 
 9.909782e-05  -7.498848e-05  0 
 2.437746e-04  -2.556175e-04  0 
 2.836308e-05  -1.480788e-05  0 
 3.692171e-04  -1.162503e-04  0 
 1.350963e-03  -8.229051e-04  0 
 6.330804e-04  -2.357946e-04  0 
 1.500453e-04  1.560944e-05  0 
 1.132212e-03  -5.493048e-04  0 
 1.529660e-03  -7.225642e-04  0 
 9.316239e-04  -3.362169e-04  0 
 7.559352e-04  -5.638433e-04  0 
 3.597264e-04  -3.050848e-06  0 
 1.580821e-04  5.153481e-06  0 
 7.919964e-04  -4.417499e-04  0 
 2.023083e-04  -1.602250e-04  0 
VECTORS displacement_ITER12 FLOAT
 0  0  0 
 0  0  0 
 1.023788e-04  -9.900503e-05  0 
 2.059387e-04  -1.616359e-04  0 
 3.448340e-04  -2.903360e-04  0 
 0  0  0 
 0  0  0 
 6.305430e-04  -7.616198e-04  0 
 1.164129e-03  -1.126474e-03  0 
 1.640651e-03  -1.252238e-03  0 
 0  0  0 
 0  0  0 
 0  0  0 
 3.297930e-05  -3.161800e-05  0 
 1.548961e-04  -1.474718e-04  0 
 9.709211e-05  -2.090903e-04  0 
 5.792141e-05  -1.236760e-04  0 
 9.902452e-05  -7.495402e-05  0 
 2.436819e-04  -2.555022e-04  0 
 2.835383e-05  -1.482031e-05  0 
 3.689068e-04  -1.158929e-04  0 
 1.354558e-03  -8.269456e-04  0 
 6.323472e-04  -2.339646e-04  0 
 1.498991e-04  1.563467e-05  0 
 1.132045e-03  -5.468692e-04  0 
 1.532032e-03  -7.262324e-04  0 
 9.310160e-04  -3.359150e-04  0 
 7.571779e-04  -5.647640e-04  0 
 3.592360e-04  -2.734646e-06  0 
 1.578941e-04  5.301563e-06  0 
 7.908674e-04  -4.350101e-04  0 
 2.024923e-04  -1.599978e-04  0 
VECTORS displacement_ITER13 FLOAT
 0  0  0 
 0  0  0 
 1.023806e-04  -9.899166e-05  0 
 2.059503e-04  -1.616088e-04  0 
 3.448675e-04  -2.903678e-04  0 
 0  0  0 
 0  0  0 
 6.300879e-04  -7.612792e-04  0 
 1.163054e-03  -1.125615e-03  0 
 1.638586e-03  -1.249595e-03  0 
 0  0  0 
 0  0  0 
 0  0  0 
 3.298559e-05  -3.155628e-05  0 
 1.548902e-04  -1.474504e-04  0 
 9.708333e-05  -2.090675e-04  0 
 5.792501e-05  -1.236723e-04  0 
 9.903314e-05  -7.492452e-05  0 
 2.436800e-04  -2.554702e-04  0 
 2.835087e-05  -1.480229e-05  0 
 3.688419e-04  -1.160311e-04  0 
 1.353547e-03  -8.264573e-04  0 
 6.327153e-04  -2.333184e-04  0 
 1.499140e-04  1.562584e-05  0 
 1.132625e-03  -5.465044e-04  0 
 1.532088e-03  -7.276506e-04  0 
 9.309157e-04  -3.360434e-04  0 
 7.567191e-04  -5.646816e-04  0 
 3.593069e-04  -2.765467e-06  0 
 1.578909e-04  5.231230e-06  0 
 7.920544e-04  -4.310471e-04  0 
 2.023894e-04  -1.600645e-04  0 
VECTORS displacement_ITER14 FLOAT
 0  0  0 
 0  0  0 
 1.023806e-04  -9.899166e-05  0 
 2.059511e-04  -1.616105e-04  0 
 3.448717e-04  -2.903773e-04  0 
 0  0  0 
 0  0  0 
 6.301225e-04  -7.612688e-04  0 
 1.163167e-03  -1.125664e-03  0 
 1.638769e-03  -1.249717e-03  0 
 0  0  0 
 0  0  0 
 0  0  0 
 3.298534e-05  -3.156018e-05  0 
 1.548877e-04  -1.474529e-04  0 
 9.708225e-05  -2.090637e-04  0 
 5.792129e-05  -1.236754e-04  0 
 9.903167e-05  -7.492547e-05  0 
 2.436811e-04  -2.554767e-04  0 
 2.835093e-05  -1.480322e-05  0 
 3.688119e-04  -1.160159e-04  0 
 1.353575e-03  -8.265510e-04  0 
 6.326523e-04  -2.334632e-04  0 
 1.499034e-04  1.561523e-05  0 
 1.132283e-03  -5.466791e-04  0 
 1.532164e-03  -7.278257e-04  0 
 9.308240e-04  -3.360219e-04  0 
 7.567203e-04  -5.646567e-04  0 
 3.592835e-04  -2.796004e-06  0 
 1.578841e-04  5.223878e-06  0 
 7.921972e-04  -4.309967e-04  0 
 2.023885e-04  -1.600386e-04  0 
CELL_DATA 43
TENSORS element_stresses FLOAT
 4.621207e-01  1.058948e-01  0 
 1.058948e-01  -3.118733e-01  0 
 0  0  0 

 1.418536e-01  9.152200e-02  0 
 9.152200e-02  -2.296082e-01  0 
 0  0  0 

 1.057110e-01  -5.676569e-02  0 
 -5.676569e-02  5.645354e-03  0 
 0  0  0 

 2.264918e-01  7.554861e-03  0 
 7.554861e-03  4.873818e-02  0 
 0  0  0 

 3.616474e-01  3.963077e-02  0 
 3.963077e-02  -1.754479e-01  0 
 0  0  0 

 -2.624609e-02  -2.153290e-02  0 
 -2.153290e-02  -6.280312e-03  0 
 0  0  0 

 1.514913e-01  2.387298e-01  0 
 2.387298e-01  -4.291287e-01  0 
 0  0  0 

 2.743334e-01  1.164207e-01  0 
 1.164207e-01  -8.906275e-02  0 
 0  0  0 

 3.862535e-01  -1.927852e-01  0 
 -1.927852e-01  -7.756320e-02  0 
 0  0  0 

 2.025416e-01  -7.402886e-02  0 
 -7.402886e-02  6.076247e-02  0 
 0  0  0 

 2.025416e-01  -7.402886e-02  0 
 -7.402886e-02  6.076247e-02  0 
 0  0  0 

 2.861549e-01  -8.770107e-02  0 
 -8.770107e-02  3.390058e-02  0 
 0  0  0 

 2.091799e-01  -1.508136e-02  0 
 -1.508136e-02  -2.011097e-01  0 
 0  0  0 

 1.310540e-01  -5.930498e-02  0 
 -5.930498e-02  5.184392e-02  0 
 0  0  0 

 1.509130e-03  2.871751e-05  0 
 2.871751e-05  -1.310927e-03  0 
 0  0  0 

 6.270635e-04  8.270342e-04  0 
 8.270342e-04  2.379359e-04  0 
 0  0  0 

 6.038999e-04  6.803920e-05  0 
 6.803920e-05  6.479250e-04  0 
 0  0  0 

 1.010908e-03  7.371342e-05  0 
 7.371342e-05  3.032725e-04  0 
 0  0  0 

 1.672573e-03  1.075689e-04  0 
 1.075689e-04  -1.550408e-04  0 
 0  0  0 

 1.812594e-03  -1.258846e-04  0 
 -1.258846e-04  -1.584946e-03  0 
 0  0  0 

 1.307955e-03  3.068952e-04  0 
 3.068952e-04  6.322921e-04  0 
 0  0  0 

 1.545252e-03  -1.710849e-04  0 
 -1.710849e-04  -9.209582e-04  0 
 0  0  0 

 2.025404e-03  -3.320523e-05  0 
 -3.320523e-05  -8.710572e-04  0 
 0  0  0 

 1.787420e-03  -6.770087e-05  0 
 -6.770087e-05  -1.326062e-04  0 
 0  0  0 

 1.065868e-03  3.257842e-04  0 
 3.257842e-04  -2.418416e-04  0 
 0  0  0 

 6.200117e-04  4.322302e-04  0 
 4.322302e-04  6.857664e-04  0 
 0  0  0 

 9.882132e-04  2.784684e-04  0 
 2.784684e-04  8.160937e-04  0 
 0  0  0 

 1.712577e-03  -4.343931e-04  0 
 -4.343931e-04  -1.398667e-03  0 
 0  0  0 

 1.734415e-03  1.292098e-04  0 
 1.292098e-04  -9.932068e-04  0 
 0  0  0 

 1.703964e-03  1.436878e-04  0 
 1.436878e-04  -1.668662e-04  0 
 0  0  0 

 1.006846e-03  7.476923e-05  0 
 7.476923e-05  2.389813e-04  0 
 0  0  0 

 1.408088e-03  6.277860e-04  0 
 6.277860e-04  2.215804e-04  0 
 0  0  0 

 1.112921e-03  1.556725e-04  0 
 1.556725e-04  -1.495735e-04  0 
 0  0  0 

 1.065263e-03  -2.557598e-05  0 
 -2.557598e-05  2.587094e-04  0 
 0  0  0 

 1.221632e-03  4.861217e-04  0 
 4.861217e-04  -3.563106e-04  0 
 0  0  0 

 1.046413e-03  2.423572e-05  0 
 2.423572e-05  3.139240e-04  0 
 0  0  0 

 1.296332e-03  -4.696192e-06  0 
 -4.696192e-06  -2.458709e-05  0 
 0  0  0 

 2.343256e-03  -1.744278e-03  0 
 -1.744278e-03  -5.907813e-04  0 
 0  0  0 

 1.445881e-03  -8.003311e-04  0 
 -8.003311e-04  4.337644e-04  0 
 0  0  0 

 1.445881e-03  -8.003311e-04  0 
 -8.003311e-04  4.337644e-04  0 
 0  0  0 

 2.094295e-03  -8.664299e-04  0 
 -8.664299e-04  -3.905906e-04  0 
 0  0  0 

 1.749488e-03  -4.297153e-04  0 
 -4.297153e-04  -1.401451e-03  0 
 0  0  0 

 1.361491e-03  -3.045878e-04  0 
 -3.045878e-04  1.537961e-05  0 
 0  0  0 

TENSORS element_stresses FLOAT
 4.621207e-01  1.058948e-01  0 
 1.058948e-01  -3.118733e-01  0 
 0  0  0 

 1.418536e-01  9.152200e-02  0 
 9.152200e-02  -2.296082e-01  0 
 0  0  0 

 1.057110e-01  -5.676569e-02  0 
 -5.676569e-02  5.645354e-03  0 
 0  0  0 

 2.264918e-01  7.554861e-03  0 
 7.554861e-03  4.873818e-02  0 
 0  0  0 

 3.616474e-01  3.963077e-02  0 
 3.963077e-02  -1.754479e-01  0 
 0  0  0 

 -2.624609e-02  -2.153290e-02  0 
 -2.153290e-02  -6.280312e-03  0 
 0  0  0 

 1.514913e-01  2.387298e-01  0 
 2.387298e-01  -4.291287e-01  0 
 0  0  0 

 2.743334e-01  1.164207e-01  0 
 1.164207e-01  -8.906275e-02  0 
 0  0  0 

 3.862535e-01  -1.927852e-01  0 
 -1.927852e-01  -7.756320e-02  0 
 0  0  0 

 2.025416e-01  -7.402886e-02  0 
 -7.402886e-02  6.076247e-02  0 
 0  0  0 

 2.025416e-01  -7.402886e-02  0 
 -7.402886e-02  6.076247e-02  0 
 0  0  0 

 2.861549e-01  -8.770107e-02  0 
 -8.770107e-02  3.390058e-02  0 
 0  0  0 

 2.091799e-01  -1.508136e-02  0 
 -1.508136e-02  -2.011097e-01  0 
 0  0  0 

 1.310540e-01  -5.930498e-02  0 
 -5.930498e-02  5.184392e-02  0 
 0  0  0 

 1.509130e-03  2.871751e-05  0 
 2.871751e-05  -1.310927e-03  0 
 0  0  0 

 6.270635e-04  8.270342e-04  0 
 8.270342e-04  2.379359e-04  0 
 0  0  0 

 6.038999e-04  6.803920e-05  0 
 6.803920e-05  6.479250e-04  0 
 0  0  0 

 1.010908e-03  7.371342e-05  0 
 7.371342e-05  3.032725e-04  0 
 0  0  0 

 1.672573e-03  1.075689e-04  0 
 1.075689e-04  -1.550408e-04  0 
 0  0  0 

 1.812594e-03  -1.258846e-04  0 
 -1.258846e-04  -1.584946e-03  0 
 0  0  0 

 1.307955e-03  3.068952e-04  0 
 3.068952e-04  6.322921e-04  0 
 0  0  0 

 1.545252e-03  -1.710849e-04  0 
 -1.710849e-04  -9.209582e-04  0 
 0  0  0 

 2.025404e-03  -3.320523e-05  0 
 -3.320523e-05  -8.710572e-04  0 
 0  0  0 

 1.787420e-03  -6.770087e-05  0 
 -6.770087e-05  -1.326062e-04  0 
 0  0  0 

 1.065868e-03  3.257842e-04  0 
 3.257842e-04  -2.418416e-04  0 
 0  0  0 

 6.200117e-04  4.322302e-04  0 
 4.322302e-04  6.857664e-04  0 
 0  0  0 

 9.882132e-04  2.784684e-04  0 
 2.784684e-04  8.160937e-04  0 
 0  0  0 

 1.712577e-03  -4.343931e-04  0 
 -4.343931e-04  -1.398667e-03  0 
 0  0  0 

 1.734415e-03  1.292098e-04  0 
 1.292098e-04  -9.932068e-04  0 
 0  0  0 

 1.703964e-03  1.436878e-04  0 
 1.436878e-04  -1.668662e-04  0 
 0  0  0 

 1.006846e-03  7.476923e-05  0 
 7.476923e-05  2.389813e-04  0 
 0  0  0 

 1.408088e-03  6.277860e-04  0 
 6.277860e-04  2.215804e-04  0 
 0  0  0 

 1.112921e-03  1.556725e-04  0 
 1.556725e-04  -1.495735e-04  0 
 0  0  0 

 1.065263e-03  -2.557598e-05  0 
 -2.557598e-05  2.587094e-04  0 
 0  0  0 

 1.221632e-03  4.861217e-04  0 
 4.861217e-04  -3.563106e-04  0 
 0  0  0 

 1.046413e-03  2.423572e-05  0 
 2.423572e-05  3.139240e-04  0 
 0  0  0 

 1.296332e-03  -4.696192e-06  0 
 -4.696192e-06  -2.458709e-05  0 
 0  0  0 

 2.343256e-03  -1.744278e-03  0 
 -1.744278e-03  -5.907813e-04  0 
 0  0  0 

 1.445881e-03  -8.003311e-04  0 
 -8.003311e-04  4.337644e-04  0 
 0  0  0 

 1.445881e-03  -8.003311e-04  0 
 -8.003311e-04  4.337644e-04  0 
 0  0  0 

 2.094295e-03  -8.664299e-04  0 
 -8.664299e-04  -3.905906e-04  0 
 0  0  0 

 1.749488e-03  -4.297153e-04  0 
 -4.297153e-04  -1.401451e-03  0 
 0  0  0 

 1.361491e-03  -3.045878e-04  0 
 -3.045878e-04  1.537961e-05  0 
 0  0  0 

