# vtk DataFile Version 3.1
this is an vtk file created by FEMAC
ASCII
DATASET UNSTRUCTURED_GRID
POINTS 30 FLOAT
3.000000 5.000000 0.000000
3.000000 6.000000 0.000000
2.750000 5.000000 0.000000
3.000000 5.250000 0.000000
3.000000 5.500000 0.000000
3.000000 5.750000 0.000000
3.250000 5.000000 0.000000
3.500000 5.000000 0.000000
3.250000 6.000000 0.000000
3.500000 6.000000 0.000000
2.779567 5.382160 0.000000
2.755439 5.624066 0.000000
2.782339 5.186810 0.000000
2.612481 5.213004 0.000000
3.226067 4.588218 0.000000
3.371004 4.799680 0.000000
3.169414 4.827579 0.000000
3.552553 5.528256 0.000000
3.186919 5.669072 0.000000
3.186347 5.331392 0.000000
3.225000 5.500000 0.000000
3.757141 5.565925 0.000000
3.339072 5.805846 0.000000
3.338405 5.194695 0.000000
3.586659 5.323754 0.000000
3.546713 5.717271 0.000000
3.383083 5.404183 0.000000
3.386514 5.598598 0.000000
3.155198 5.844984 0.000000
3.154950 5.155217 0.000000
CELLS 42 168 
3 10  3  4
3 12  2  0
3 3 12  0
3 10 12  3
3 2 12 13
3 11  4  5
3 11 10  4
3 12 10 13
3 7  6 15
3 16  6  0
3 6 16 15
3 16 14 15
3 4 18  5
3 19  4  3
3 20 18  4
3 19 20  4
3 19 26 20
3 27 18 20
3 23  6  7
3 8 22  9
3 27 22 18
3 23 26 19
3 27 26 17
3 20 26 27
3 23  7 24
3 17 26 24
3 23 24 26
3 9 22 25
3 27 17 25
3 25 22 27
3 5 28  1
3 28  8  1
3 28  5 18
3 29  3  0
3 6 29  0
3 3 29 19
3 28 22  8
3 18 22 28
3 23 29  6
3 23 19 29
3 17 24 21
3 25 17 21
CELL_TYPES 42
5 5 5 5 5 5 5 5 5 5 5 5 5 5 5 5 5 5 5 5 5 5 5 5 5 5 5 5 5 5 5 5 5 5 5 5 5 5 5 5 5 5 
POINT_DATA 30
VECTORS displacement_ITER1 FLOAT
 9.094927e-02  -1.620931e-01  0 
 1.843320e-01  -1.622057e-01  0 
 8.299060e-02  -1.292977e-01  0 
 1.143116e-01  -1.621301e-01  0 
 1.376579e-01  -1.621586e-01  0 
 1.609964e-01  -1.621880e-01  0 
 9.097635e-02  -1.854624e-01  0 
 9.100133e-02  -2.088101e-01  0 
 1.843562e-01  -1.855476e-01  0 
 1.843786e-01  -2.088908e-01  0 
 1.197383e-01  -1.421071e-01  0 
 1.397007e-01  -1.432346e-01  0 
 1.012909e-01  -1.385883e-01  0 
 9.544789e-02  -1.247742e-01  0 
 6.452736e-02  -1.666119e-01  0 
 8.229570e-02  -1.886047e-01  0 
 7.918672e-02  -1.746365e-01  0 
 1.403352e-01  -2.137643e-01  0 
 1.534572e-01  -1.796275e-01  0 
 1.219261e-01  -1.795447e-01  0 
 1.376726e-01  -1.831686e-01  0 
 1.438709e-01  -2.328852e-01  0 
 1.662373e-01  -1.938466e-01  0 
 1.091667e-01  -1.937393e-01  0 
 1.212313e-01  -2.169356e-01  0 
 1.579823e-01  -2.132324e-01  0 
 1.287345e-01  -1.979243e-01  0 
 1.468913e-01  -1.982616e-01  0 
 1.698749e-01  -1.766819e-01  0 
 1.054684e-01  -1.765974e-01  0 
VECTORS displacement_ITER2 FLOAT
 9.358829e-02  -1.320122e-01  0 
 1.543085e-01  -1.321924e-01  0 
 7.823809e-02  -9.744777e-02  0 
 1.088150e-01  -1.320761e-01  0 
 1.239992e-01  -1.321266e-01  0 
 1.391538e-01  -1.321712e-01  0 
 9.362953e-02  -1.472493e-01  0 
 9.366245e-02  -1.624557e-01  0 
 1.543285e-01  -1.473464e-01  0 
 1.543466e-01  -1.624980e-01  0 
 1.107977e-01  -1.174470e-01  0 
 1.228629e-01  -1.192202e-01  0 
 9.744170e-02  -1.126519e-01  0 
 9.020700e-02  -1.003433e-01  0 
 7.034567e-02  -1.298737e-01  0 
 8.599776e-02  -1.477083e-01  0 
 8.333272e-02  -1.377197e-01  0 
 1.257495e-01  -1.656706e-01  0 
 1.342680e-01  -1.434900e-01  0 
 1.137787e-01  -1.434180e-01  0 
 1.240152e-01  -1.457834e-01  0 
 1.280467e-01  -1.780944e-01  0 
 1.425692e-01  -1.527301e-01  0 
 1.054809e-01  -1.526499e-01  0 
 1.133343e-01  -1.677393e-01  0 
 1.372111e-01  -1.653206e-01  0 
 1.182100e-01  -1.553748e-01  0 
 1.300076e-01  -1.555954e-01  0 
 1.449249e-01  -1.415867e-01  0 
 1.030649e-01  -1.414875e-01  0 
VECTORS displacement_ITER3 FLOAT
 7.975519e-02  -9.192960e-02  0 
 1.148435e-01  -9.221899e-02  0 
 5.373695e-02  -5.077755e-02  0 
 8.862277e-02  -9.203687e-02  0 
 9.740438e-02  -9.212261e-02  0 
 1.061231e-01  -9.219100e-02  0 
 7.982051e-02  -1.008113e-01  0 
 7.986611e-02  -1.096473e-01  0 
 1.148572e-01  -1.009274e-01  0 
 1.148679e-01  -1.096291e-01  0 
 8.855317e-02  -8.089012e-02  0 
 9.447739e-02  -8.286992e-02  0 
 7.822090e-02  -7.464664e-02  0 
 6.967778e-02  -6.124216e-02  0 
 4.896131e-02  -8.491467e-02  0 
 6.817670e-02  -1.006029e-01  0 
 6.694156e-02  -9.102283e-02  0 
 9.842521e-02  -1.114790e-01  0 
 1.033272e-01  -9.869417e-02  0 
 9.151259e-02  -9.862375e-02  0 
 9.742288e-02  -1.000050e-01  0 
 9.974452e-02  -1.186339e-01  0 
 1.081037e-01  -1.040187e-01  0 
 8.671353e-02  -1.039635e-01  0 
 9.126608e-02  -1.126913e-01  0 
 1.050223e-01  -1.112653e-01  0 
 9.407914e-02  -1.055419e-01  0 
 1.008789e-01  -1.056678e-01  0 
 1.094510e-01  -9.761331e-02  0 
 8.529783e-02  -9.748460e-02  0 
VECTORS displacement_ITER4 FLOAT
 7.333321e-02  -7.996879e-02  0 
 9.580755e-02  -8.030466e-02  0 
 4.495380e-02  -3.994102e-02  0 
 7.907051e-02  -8.009637e-02  0 
 8.470081e-02  -8.019712e-02  0 
 9.025555e-02  -8.027300e-02  0 
 7.341051e-02  -8.572084e-02  0 
 7.346187e-02  -9.142047e-02  0 
 9.581912e-02  -8.584185e-02  0 
 9.582499e-02  -9.137216e-02  0 
 7.800606e-02  -7.136953e-02  0 
 8.102449e-02  -7.327264e-02  0 
 6.947583e-02  -6.506647e-02  0 
 6.081518e-02  -5.236487e-02  0 
 3.708380e-02  -7.031759e-02  0 
 5.949498e-02  -8.571231e-02  0 
 5.896533e-02  -7.562112e-02  0 
 8.536232e-02  -9.257126e-02  0 
 8.848529e-02  -8.440950e-02  0 
 8.093891e-02  -8.434176e-02  0 
 8.472000e-02  -8.523788e-02  0 
 8.620095e-02  -9.713290e-02  0 
 9.152732e-02  -8.780714e-02  0 
 7.786210e-02  -8.776569e-02  0 
 8.078954e-02  -9.336154e-02  0 
 8.956526e-02  -9.242557e-02  0 
 8.258751e-02  -8.877937e-02  0 
 8.692774e-02  -8.885882e-02  0 
 9.237993e-02  -8.373078e-02  0 
 7.693908e-02  -8.359299e-02  0 
VECTORS displacement_ITER5 FLOAT
 6.324346e-02  -3.894048e-02  0 
 6.769282e-02  -3.928852e-02  0 
 4.076373e-02  -1.359551e-02  0 
 6.448834e-02  -3.907817e-02  0 
 6.561306e-02  -3.918247e-02  0 
 6.666214e-02  -3.925293e-02  0 
 6.332956e-02  -4.019617e-02  0 
 6.338457e-02  -4.139636e-02  0 
 6.770514e-02  -4.030753e-02  0 
 6.770545e-02  -4.132456e-02  0 
 6.162194e-02  -3.594973e-02  0 
 6.059248e-02  -3.755580e-02  0 
 5.708703e-02  -3.147022e-02  0 
 4.969304e-02  -2.429053e-02  0 
 2.536194e-02  -2.502253e-02  0 
 4.944355e-02  -3.973442e-02  0 
 4.913015e-02  -3.041774e-02  0 
 6.576035e-02  -4.158778e-02  0 
 6.634702e-02  -4.002162e-02  0 
 6.489095e-02  -3.996709e-02  0 
 6.563100e-02  -4.016550e-02  0 
 6.591601e-02  -4.245154e-02  0 
 6.691756e-02  -4.067026e-02  0 
 6.427781e-02  -4.065076e-02  0 
 6.487894e-02  -4.176797e-02  0 
 6.654996e-02  -4.154411e-02  0 
 6.522655e-02  -4.085686e-02  0 
 6.605779e-02  -4.087131e-02  0 
 6.706797e-02  -3.990957e-02  0 
 6.406378e-02  -3.978320e-02  0 
VECTORS displacement_ITER6 FLOAT
 4.948396e-02  -3.405152e-02  0 
 6.269207e-02  -3.437613e-02  0 
 3.524661e-02  -2.108894e-02  0 
 5.291526e-02  -3.418062e-02  0 
 5.622947e-02  -3.427610e-02  0 
 5.947646e-02  -3.433758e-02  0 
 4.957147e-02  -3.748312e-02  0 
 4.962663e-02  -4.086264e-02  0 
 6.270740e-02  -3.758304e-02  0 
 6.270772e-02  -4.079308e-02  0 
 5.112554e-02  -3.198370e-02  0 
 5.228079e-02  -3.286975e-02  0 
 4.605107e-02  -3.007699e-02  0 
 4.075744e-02  -2.630322e-02  0 
 1.145428e-02  -2.160932e-02  0 
 3.519435e-02  -3.728424e-02  0 
 3.477734e-02  -2.722145e-02  0 
 5.662196e-02  -4.151928e-02  0 
 5.844635e-02  -3.674925e-02  0 
 5.402811e-02  -3.669603e-02  0 
 5.624596e-02  -3.722981e-02  0 
 5.710766e-02  -4.417413e-02  0 
 6.021598e-02  -3.872876e-02  0 
 5.221863e-02  -3.870925e-02  0 
 5.394906e-02  -4.199686e-02  0 
 5.906948e-02  -4.142455e-02  0 
 5.500087e-02  -3.930550e-02  0 
 5.753668e-02  -3.934870e-02  0 
 6.071222e-02  -3.635411e-02  0 
 5.165985e-02  -3.624152e-02  0 
VECTORS displacement_ITER7 FLOAT
 3.568842e-02  -2.452301e-02  0 
 5.077282e-02  -2.481800e-02  0 
 2.882605e-02  -2.411256e-02  0 
 3.958344e-02  -2.463891e-02  0 
 4.336655e-02  -2.472357e-02  0 
 4.709033e-02  -2.477712e-02  0 
 3.577727e-02  -2.840423e-02  0 
 3.583358e-02  -3.223780e-02  0 
 5.079091e-02  -2.849325e-02  0 
 5.079306e-02  -3.217541e-02  0 
 3.787634e-02  -2.464082e-02  0 
 3.945304e-02  -2.516745e-02  0 
 3.366009e-02  -2.503819e-02  0 
 3.016555e-02  -2.544899e-02  0 
 7.552478e-03  -1.200090e-02  0 
 2.463547e-02  -2.594502e-02  0 
 2.348926e-02  -1.891577e-02  0 
 4.380892e-02  -3.300273e-02  0 
 4.590305e-02  -2.754428e-02  0 
 4.084560e-02  -2.749731e-02  0 
 4.338135e-02  -2.809972e-02  0 
 4.436504e-02  -3.604224e-02  0 
 4.793149e-02  -2.980769e-02  0 
 3.878062e-02  -2.979316e-02  0 
 4.075192e-02  -3.354242e-02  0 
 4.661562e-02  -3.289648e-02  0 
 4.195440e-02  -3.047213e-02  0 
 4.485776e-02  -3.051985e-02  0 
 4.850345e-02  -2.708548e-02  0 
 3.814915e-02  -2.698956e-02  0 
VECTORS displacement_ITER8 FLOAT
 2.860918e-02  -1.820189e-02  0 
 4.286657e-02  -1.848759e-02  0 
 2.324209e-02  -2.105815e-02  0 
 3.229850e-02  -1.831208e-02  0 
 3.587460e-02  -1.839339e-02  0 
 3.939238e-02  -1.844597e-02  0 
 2.870194e-02  -2.186738e-02  0 
 2.876088e-02  -2.548585e-02  0 
 4.288486e-02  -2.195347e-02  0 
 4.288786e-02  -2.542702e-02  0 
 3.054975e-02  -1.914647e-02  0 
 3.187224e-02  -1.965655e-02  0 
 2.685007e-02  -2.018043e-02  0 
 2.399865e-02  -2.163468e-02  0 
 9.497403e-03  -5.329479e-03  0 
 2.065675e-02  -1.733246e-02  0 
 1.890626e-02  -1.326494e-02  0 
 3.629162e-02  -2.621260e-02  0 
 3.827127e-02  -2.105796e-02  0 
 3.349200e-02  -2.101422e-02  0 
 3.588859e-02  -2.158292e-02  0 
 3.681587e-02  -2.908160e-02  0 
 4.018643e-02  -2.319370e-02  0 
 3.154026e-02  -2.318285e-02  0 
 3.340445e-02  -2.672380e-02  0 
 3.894304e-02  -2.611034e-02  0 
 3.454019e-02  -2.382402e-02  0 
 3.728318e-02  -2.386763e-02  0 
 4.072634e-02  -2.062489e-02  0 
 3.094131e-02  -2.053522e-02  0 
VECTORS displacement_ITER9 FLOAT
 2.195080e-02  -1.969436e-02  0 
 3.823491e-02  -1.997426e-02  0 
 1.500368e-02  -2.027618e-02  0 
 2.615345e-02  -1.979907e-02  0 
 3.023496e-02  -1.987911e-02  0 
 3.425605e-02  -1.993368e-02  0 
 2.205222e-02  -2.385796e-02  0 
 2.211581e-02  -2.797278e-02  0 
 3.825131e-02  -2.394242e-02  0 
 3.825412e-02  -2.791748e-02  0 
 2.516240e-02  -1.974355e-02  0 
 2.695355e-02  -2.016692e-02  0 
 2.102192e-02  -2.085368e-02  0 
 1.882507e-02  -2.077726e-02  0 
 1.391893e-02  -8.359519e-03  0 
 1.773095e-02  -1.757267e-02  0 
 1.544219e-02  -1.670926e-02  0 
 3.070691e-02  -2.881046e-02  0 
 3.297216e-02  -2.292056e-02  0 
 2.751041e-02  -2.287769e-02  0 
 3.024786e-02  -2.352286e-02  0 
 3.130682e-02  -3.208942e-02  0 
 3.516233e-02  -2.536166e-02  0 
 2.528134e-02  -2.535272e-02  0 
 2.740659e-02  -2.939103e-02  0 
 3.373985e-02  -2.869583e-02  0 
 2.870520e-02  -2.608238e-02  0 
 3.184100e-02  -2.613177e-02  0 
 3.578122e-02  -2.242419e-02  0 
 2.460147e-02  -2.233872e-02  0 
VECTORS displacement_ITER10 FLOAT
 1.267900e-02  -1.235150e-02  0 
 2.409934e-02  -1.262981e-02  0 
 3.859172e-03  -1.052347e-02  0 
 1.567550e-02  -1.245490e-02  0 
 1.853959e-02  -1.253622e-02  0 
 2.133945e-02  -1.259217e-02  0 
 1.278883e-02  -1.529782e-02  0 
 1.285613e-02  -1.819265e-02  0 
 2.411400e-02  -1.537966e-02  0 
 2.411545e-02  -1.813444e-02  0 
 1.473115e-02  -1.249608e-02  0 
 1.545518e-02  -1.299860e-02  0 
 1.136847e-02  -1.325336e-02  0 
 9.495180e-03  -1.219190e-02  0 
 1.259734e-02  -2.018685e-03  0 
 1.139664e-02  -8.238689e-03  0 
 9.008496e-03  -9.881831e-03  0 
 1.887164e-02  -1.877236e-02  0 
 2.045076e-02  -1.466629e-02  0 
 1.663571e-02  -1.462791e-02  0 
 1.855122e-02  -1.508357e-02  0 
 1.928775e-02  -2.105063e-02  0 
 2.197246e-02  -1.636480e-02  0 
 1.507063e-02  -1.636315e-02  0 
 1.656737e-02  -1.918855e-02  0 
 2.098176e-02  -1.868586e-02  0 
 1.747507e-02  -1.687261e-02  0 
 1.966278e-02  -1.690419e-02  0 
 2.240057e-02  -1.432464e-02  0 
 1.458159e-02  -1.424419e-02  0 
VECTORS displacement_ITER11 FLOAT
 1.103144e-02  -8.232491e-03  0 
 2.086692e-02  -8.504479e-03  0 
 2.516304e-03  -5.828029e-03  0 
 1.363824e-02  -8.334593e-03  0 
 1.610482e-02  -8.415769e-03  0 
 1.850513e-02  -8.470362e-03  0 
 1.114609e-02  -1.078229e-02  0 
 1.121472e-02  -1.327939e-02  0 
 2.088089e-02  -1.085889e-02  0 
 2.088157e-02  -1.321627e-02  0 
 1.301327e-02  -8.311200e-03  0 
 1.355499e-02  -8.750140e-03  0 
 1.004039e-02  -8.992941e-03  0 
 8.586269e-03  -7.815728e-03  0 
 1.232855e-02  1.618488e-04  0 
 1.021415e-02  -4.605014e-03  0 
 8.188246e-03  -6.381094e-03  0 
 1.638950e-02  -1.377106e-02  0 
 1.774498e-02  -1.024701e-02  0 
 1.446838e-02  -1.021232e-02  0 
 1.611504e-02  -1.060495e-02  0 
 1.674549e-02  -1.572128e-02  0 
 1.904794e-02  -1.170287e-02  0 
 1.311926e-02  -1.170695e-02  0 
 1.441022e-02  -1.413442e-02  0 
 1.819786e-02  -1.369374e-02  0 
 1.519088e-02  -1.214278e-02  0 
 1.706865e-02  -1.216770e-02  0 
 1.941402e-02  -9.954826e-03  0 
 1.269239e-02  -9.880650e-03  0 
VECTORS displacement_ITER12 FLOAT
 7.765999e-03  -3.248254e-03  0 
 1.693328e-02  -3.508267e-03  0 
 1.695531e-03  -2.316057e-03  0 
 1.020990e-02  -3.348268e-03  0 
 1.250810e-02  -3.427511e-03  0 
 1.473922e-02  -3.478325e-03  0 
 7.883493e-03  -5.630269e-03  0 
 7.952282e-03  -7.959302e-03  0 
 1.694672e-02  -5.698131e-03  0 
 1.694716e-02  -7.888680e-03  0 
 9.921111e-03  -3.401353e-03  0 
 1.063138e-02  -3.676497e-03  0 
 7.428570e-03  -4.247221e-03  0 
 6.497530e-03  -3.948027e-03  0 
 7.479608e-03  2.754246e-03  0 
 6.339896e-03  -1.188078e-03  0 
 4.909762e-03  -2.007988e-03  0 
 1.276976e-02  -8.409777e-03  0 
 1.403239e-02  -5.130390e-03  0 
 1.098405e-02  -5.100722e-03  0 
 1.251644e-02  -5.465026e-03  0 
 1.309929e-02  -1.022044e-02  0 
 1.524274e-02  -6.483113e-03  0 
 9.725914e-03  -6.494418e-03  0 
 1.092879e-02  -8.751507e-03  0 
 1.445095e-02  -8.335646e-03  0 
 1.165595e-02  -6.897416e-03  0 
 1.340226e-02  -6.917925e-03  0 
 1.558317e-02  -4.857610e-03  0 
 9.325661e-03  -4.792600e-03  0 
VECTORS displacement_ITER13 FLOAT
 3.897447e-03  2.907693e-05  0 
 1.454751e-02  -2.126712e-04  0 
 2.268233e-03  -1.593441e-03  0 
 6.713006e-03  -6.731202e-05  0 
 9.379924e-03  -1.421840e-04  0 
 1.198081e-02  -1.870849e-04  0 
 4.016532e-03  -2.720804e-03  0 
 4.085187e-03  -5.417604e-03  0 
 1.455971e-02  -2.776706e-03  0 
 1.456070e-02  -5.339209e-03  0 
 6.860238e-03  2.159634e-04  0 
 8.332393e-03  1.541983e-04  0 
 4.733107e-03  -9.182671e-04  0 
 4.378863e-03  -1.991465e-03  0 
 6.959229e-04  3.081275e-03  0 
 1.502165e-03  -6.023627e-04  0 
 7.087598e-04  2.493149e-04  0 
 9.677282e-03  -5.940852e-03  0 
 1.115227e-02  -2.117889e-03  0 
 7.605253e-03  -2.094076e-03  0 
 9.385880e-03  -2.512275e-03  0 
 1.006010e-02  -8.052803e-03  0 
 1.256526e-02  -3.694566e-03  0 
 6.144963e-03  -3.713698e-03  0 
 7.536347e-03  -6.333536e-03  0 
 1.163968e-02  -5.856740e-03  0 
 8.382430e-03  -4.179935e-03  0 
 1.041564e-02  -4.202395e-03  0 
 1.296488e-02  -1.795770e-03  0 
 5.687134e-03  -1.742598e-03  0 
VECTORS displacement_ITER14 FLOAT
 5.783409e-03  3.906439e-04  0 
 1.552344e-02  1.517399e-04  0 
 4.965879e-03  -1.114327e-03  0 
 8.373434e-03  2.942143e-04  0 
 1.081139e-02  2.197349e-04  0 
 1.318315e-02  1.761697e-04  0 
 5.904786e-03  -2.131842e-03  0 
 5.974177e-03  -4.600018e-03  0 
 1.553422e-02  -2.184680e-03  0 
 1.553499e-02  -4.519113e-03  0 
 8.434208e-03  6.867887e-04  0 
 9.823993e-03  6.004566e-04  0 
 6.612540e-03  -2.818260e-04  0 
 6.205841e-03  -1.560321e-03  0 
 1.743085e-03  2.325384e-03  0 
 3.330930e-03  -1.051437e-03  0 
 2.783319e-03  3.550344e-04  0 
 1.108120e-02  -5.072776e-03  0 
 1.242834e-02  -1.584211e-03  0 
 9.190810e-03  -1.562589e-03  0 
 1.081670e-02  -1.944572e-03  0 
 1.142879e-02  -6.995973e-03  0 
 1.371628e-02  -3.021466e-03  0 
 7.855365e-03  -3.043734e-03  0 
 9.128118e-03  -5.434562e-03  0 
 1.287090e-02  -4.993958e-03  0 
 9.900652e-03  -3.467927e-03  0 
 1.175560e-02  -3.486414e-03  0 
 1.408067e-02  -1.290847e-03  0 
 7.433428e-03  -1.240717e-03  0 
VECTORS displacement_ITER15 FLOAT
 5.485136e-03  1.236700e-03  0 
 1.144604e-02  9.988232e-04  0 
 4.285138e-03  1.337569e-03  0 
 7.135590e-03  1.139171e-03  0 
 8.626284e-03  1.063994e-03  0 
 1.004963e-02  1.021796e-03  0 
 5.611573e-03  -3.424870e-04  0 
 5.682855e-03  -1.864804e-03  0 
 1.145425e-02  -3.915811e-04  0 
 1.145396e-02  -1.779501e-03  0 
 6.768159e-03  1.493861e-03  0 
 7.402754e-03  1.237223e-03  0 
 5.674028e-03  1.070671e-03  0 
 4.940545e-03  -5.415740e-05  0 
 1.576456e-03  1.327166e-03  0 
 3.467217e-03  -7.086040e-04  0 
 3.349410e-03  9.583050e-04  0 
 8.787084e-03  -2.133729e-03  0 
 9.601327e-03  -3.112354e-05  0 
 7.644489e-03  -1.350433e-05  0 
 8.630789e-03  -2.480668e-04  0 
 8.991032e-03  -3.278237e-03  0 
 1.037076e-02  -8.916828e-04  0 
 6.826195e-03  -9.199335e-04  0 
 7.609608e-03  -2.367345e-03  0 
 9.860148e-03  -2.077175e-03  0 
 8.077648e-03  -1.172832e-03  0 
 9.195129e-03  -1.177278e-03  0 
 1.058773e-02  1.421989e-04  0 
 6.552889e-03  1.882782e-04  0 
VECTORS displacement_ITER16 FLOAT
 5.310577e-03  -2.000058e-03  0 
 1.001150e-02  -2.231871e-03  0 
 2.925535e-03  -3.349140e-04  0 
 6.651111e-03  -2.096693e-03  0 
 7.825419e-03  -2.171392e-03  0 
 8.931326e-03  -2.210747e-03  0 
 5.441683e-03  -3.263355e-03  0 
 5.514859e-03  -4.469262e-03  0 
 1.001862e-02  -3.307323e-03  0 
 1.001683e-02  -4.379350e-03  0 
 6.302172e-03  -1.673700e-03  0 
 6.704486e-03  -1.968713e-03  0 
 5.318353e-03  -1.840975e-03  0 
 4.551517e-03  -2.403789e-03  0 
 2.058512e-03  -3.779868e-03  0 
 3.503475e-03  -4.519936e-03  0 
 3.746415e-03  -2.838946e-03  0 
 7.948529e-03  -4.668026e-03  0 
 8.584773e-03  -3.028511e-03  0 
 7.056678e-03  -3.014382e-03  0 
 7.828944e-03  -3.198616e-03  0 
 8.104165e-03  -5.550485e-03  0 
 9.180226e-03  -3.695918e-03  0 
 6.410762e-03  -3.729250e-03  0 
 7.030781e-03  -4.859898e-03  0 
 8.781259e-03  -4.618375e-03  0 
 7.397051e-03  -3.923658e-03  0 
 8.267440e-03  -3.922410e-03  0 
 9.348496e-03  -2.893965e-03  0 
 6.186485e-03  -2.853976e-03  0 
VECTORS displacement_ITER17 FLOAT
 4.058487e-03  -3.790413e-03  0 
 9.466797e-03  -4.013467e-03  0 
 1.859355e-03  -2.239973e-03  0 
 5.577847e-03  -3.884666e-03  0 
 6.927485e-03  -3.957691e-03  0 
 8.209753e-03  -3.994224e-03  0 
 4.193693e-03  -5.225856e-03  0 
 4.269277e-03  -6.604133e-03  0 
 9.472187e-03  -5.266094e-03  0 
 9.468713e-03  -6.514841e-03  0 
 5.438341e-03  -3.057469e-03  0 
 6.085443e-03  -3.212889e-03  0 
 4.296175e-03  -3.362183e-03  0 
 3.784689e-03  -3.318443e-03  0 
 2.427039e-03  -5.828477e-03  0 
 3.034802e-03  -6.338021e-03  0 
 3.122317e-03  -5.031363e-03  0 
 7.069010e-03  -6.841085e-03  0 
 7.804934e-03  -4.945131e-03  0 
 6.039888e-03  -4.932976e-03  0 
 6.930227e-03  -5.143155e-03  0 
 7.250749e-03  -7.865061e-03  0 
 8.496036e-03  -5.718884e-03  0 
 5.298218e-03  -5.754280e-03  0 
 6.008745e-03  -7.056838e-03  0 
 8.033913e-03  -6.787397e-03  0 
 6.430981e-03  -5.979153e-03  0 
 7.437326e-03  -5.979622e-03  0 
 8.693109e-03  -4.786747e-03  0 
 5.045504e-03  -4.752123e-03  0 
VECTORS displacement_ITER18 FLOAT
 2.786758e-03  -4.043990e-03  0 
 7.731957e-03  -4.261633e-03  0 
 1.558378e-03  -3.919206e-03  0 
 4.191786e-03  -4.136575e-03  0 
 5.424265e-03  -4.208987e-03  0 
 6.589928e-03  -4.244329e-03  0 
 2.925117e-03  -5.359704e-03  0 
 3.002457e-03  -6.618789e-03  0 
 7.735744e-03  -5.399154e-03  0 
 7.731201e-03  -6.532210e-03  0 
 4.073538e-03  -3.306937e-03  0 
 4.693392e-03  -3.331431e-03  0 
 3.081483e-03  -3.865173e-03  0 
 2.862077e-03  -3.737956e-03  0 
 2.183810e-03  -5.587737e-03  0 
 2.351620e-03  -6.134258e-03  0 
 2.261876e-03  -5.183021e-03  0 
 5.552543e-03  -6.832409e-03  0 
 6.222314e-03  -5.108624e-03  0 
 4.615445e-03  -5.097585e-03  0 
 5.426692e-03  -5.289125e-03  0 
 5.717078e-03  -7.758837e-03  0 
 6.849322e-03  -5.811211e-03  0 
 3.937809e-03  -5.847274e-03  0 
 4.587978e-03  -7.031873e-03  0 
 6.428478e-03  -6.782284e-03  0 
 4.972394e-03  -6.050645e-03  0 
 5.887526e-03  -6.049667e-03  0 
 7.028787e-03  -4.964472e-03  0 
 3.702892e-03  -4.932435e-03  0 
VECTORS displacement_ITER19 FLOAT
 1.589045e-03  -3.815211e-03  0 
 6.914391e-03  -4.024043e-03  0 
 1.400935e-03  -4.614872e-03  0 
 3.090245e-03  -3.905702e-03  0 
 4.416454e-03  -3.976699e-03  0 
 5.676069e-03  -4.009999e-03  0 
 1.730356e-03  -5.221761e-03  0 
 1.809660e-03  -6.572151e-03  0 
 6.916683e-03  -5.258849e-03  0 
 6.911443e-03  -6.487579e-03  0 
 3.231129e-03  -2.783152e-03  0 
 4.048806e-03  -2.653205e-03  0 
 2.233917e-03  -3.553888e-03  0 
 2.416775e-03  -3.091387e-03  0 
 1.948010e-03  -4.910755e-03  0 
 1.692512e-03  -5.610549e-03  0 
 1.403905e-03  -4.969075e-03  0 
 4.553843e-03  -6.807119e-03  0 
 5.277234e-03  -4.945618e-03  0 
 3.543796e-03  -4.936488e-03  0 
 4.418056e-03  -5.141471e-03  0 
 4.732271e-03  -7.809410e-03  0 
 5.955603e-03  -5.705362e-03  0 
 2.814985e-03  -5.743047e-03  0 
 3.513299e-03  -7.019044e-03  0 
 5.500812e-03  -6.755005e-03  0 
 3.927563e-03  -5.962498e-03  0 
 4.915387e-03  -5.962226e-03  0 
 6.150460e-03  -4.788524e-03  0 
 2.564780e-03  -4.760786e-03  0 
VECTORS displacement_ITER20 FLOAT
 1.644217e-03  -3.686500e-03  0 
 6.404583e-03  -3.889622e-03  0 
 1.558232e-03  -4.208303e-03  0 
 3.005796e-03  -3.776126e-03  0 
 4.189849e-03  -3.846506e-03  0 
 5.306655e-03  -3.878413e-03  0 
 1.787596e-03  -4.950246e-03  0 
 1.868162e-03  -6.157818e-03  0 
 6.405836e-03  -4.984965e-03  0 
 6.400416e-03  -6.072796e-03  0 
 3.273155e-03  -2.624006e-03  0 
 4.043741e-03  -2.490343e-03  0 
 2.380899e-03  -3.301240e-03  0 
 2.692313e-03  -2.650732e-03  0 
 2.441923e-03  -4.995788e-03  0 
 1.890393e-03  -5.342627e-03  0 
 1.657378e-03  -4.864425e-03  0 
 4.309405e-03  -6.362104e-03  0 
 4.953497e-03  -4.708158e-03  0 
 3.412657e-03  -4.701189e-03  0 
 4.190676e-03  -4.883247e-03  0 
 4.465779e-03  -7.246969e-03  0 
 5.553953e-03  -5.381275e-03  0 
 2.761386e-03  -5.421626e-03  0 
 3.385834e-03  -6.554955e-03  0 
 5.149108e-03  -6.313130e-03  0 
 3.754381e-03  -5.614710e-03  0 
 4.631300e-03  -5.611616e-03  0 
 5.726888e-03  -4.568475e-03  0 
 2.533313e-03  -4.544185e-03  0 
VECTORS displacement_ITER21 FLOAT
 1.868548e-03  -3.144483e-03  0 
 5.910525e-03  -3.343969e-03  0 
 1.854661e-03  -3.199739e-03  0 
 3.051562e-03  -3.233842e-03  0 
 4.054949e-03  -3.303972e-03  0 
 4.991050e-03  -3.334812e-03  0 
 2.013374e-03  -4.227866e-03  0 
 2.094617e-03  -5.254712e-03  0 
 5.910813e-03  -4.261061e-03  0 
 5.905359e-03  -5.170014e-03  0 
 3.293410e-03  -2.238319e-03  0 
 3.975779e-03  -2.202890e-03  0 
 2.561606e-03  -2.668397e-03  0 
 2.775112e-03  -2.161257e-03  0 
 2.533360e-03  -4.816931e-03  0 
 2.073362e-03  -4.931297e-03  0 
 1.963731e-03  -4.342044e-03  0 
 4.153152e-03  -5.419870e-03  0 
 4.695974e-03  -4.030010e-03  0 
 3.399367e-03  -4.024526e-03  0 
 4.055309e-03  -4.178050e-03  0 
 4.282085e-03  -6.155974e-03  0 
 5.197831e-03  -4.593424e-03  0 
 2.846612e-03  -4.635481e-03  0 
 3.377322e-03  -5.588167e-03  0 
 4.856734e-03  -5.375450e-03  0 
 3.687994e-03  -4.795425e-03  0 
 4.424425e-03  -4.789480e-03  0 
 5.342848e-03  -3.912888e-03  0 
 2.646894e-03  -3.890802e-03  0 
VECTORS displacement_ITER22 FLOAT
 1.758233e-03  -2.613865e-03  0 
 5.947680e-03  -2.807626e-03  0 
 2.292387e-03  -2.628442e-03  0 
 2.978171e-03  -2.702263e-03  0 
 4.017406e-03  -2.771437e-03  0 
 4.989990e-03  -2.800309e-03  0 
 1.903769e-03  -3.732582e-03  0 
 1.985102e-03  -4.794821e-03  0 
 5.947409e-03  -3.763490e-03  0 
 5.942167e-03  -4.710653e-03  0 
 3.198997e-03  -2.042140e-03  0 
 4.014408e-03  -2.153281e-03  0 
 2.553800e-03  -2.215524e-03  0 
 2.589736e-03  -2.357181e-03  0 
 1.633932e-03  -4.898983e-03  0 
 1.630102e-03  -5.004685e-03  0 
 1.696033e-03  -3.979513e-03  0 
 4.118827e-03  -4.966655e-03  0 
 4.682530e-03  -3.523521e-03  0 
 3.337234e-03  -3.519414e-03  0 
 4.017305e-03  -3.677714e-03  0 
 4.253088e-03  -5.731991e-03  0 
 5.204696e-03  -4.109204e-03  0 
 2.764649e-03  -4.152501e-03  0 
 3.313427e-03  -5.139748e-03  0 
 4.850514e-03  -4.921626e-03  0 
 3.635858e-03  -4.318076e-03  0 
 4.400526e-03  -4.312193e-03  0 
 5.355767e-03  -3.401173e-03  0 
 2.559358e-03  -3.382022e-03  0 
VECTORS displacement_ITER23 FLOAT
 2.030389e-03  -2.404485e-03  0 
 6.282484e-03  -2.594233e-03  0 
 2.756677e-03  -2.308064e-03  0 
 3.266063e-03  -2.492077e-03  0 
 4.320321e-03  -2.560718e-03  0 
 5.308061e-03  -2.588064e-03  0 
 2.176238e-03  -3.537667e-03  0 
 2.257561e-03  -4.614673e-03  0 
 6.281897e-03  -3.567388e-03  0 
 6.276647e-03  -4.531189e-03  0 
 3.474928e-03  -2.151800e-03  0 
 4.381911e-03  -2.353258e-03  0 
 2.882135e-03  -2.152398e-03  0 
 2.773521e-03  -2.858446e-03  0 
 1.431759e-03  -5.332104e-03  0 
 1.522354e-03  -5.143677e-03  0 
 1.780989e-03  -3.923572e-03  0 
 4.423300e-03  -4.789263e-03  0 
 4.995382e-03  -3.323512e-03  0 
 3.629801e-03  -3.320210e-03  0 
 4.319985e-03  -3.480392e-03  0 
 4.560092e-03  -5.567098e-03  0 
 5.526324e-03  -3.918901e-03  0 
 3.048782e-03  -3.962629e-03  0 
 3.605263e-03  -4.964349e-03  0 
 5.166812e-03  -4.744102e-03  0 
 3.932640e-03  -4.130449e-03  0 
 4.709208e-03  -4.124638e-03  0 
 5.679926e-03  -3.198876e-03  0 
 2.841139e-03  -3.181479e-03  0 
VECTORS displacement_ITER24 FLOAT
 2.250043e-03  -2.028641e-03  0 
 5.591688e-03  -2.217841e-03  0 
 2.838351e-03  -1.731288e-03  0 
 3.257755e-03  -2.116127e-03  0 
 4.083641e-03  -2.184813e-03  0 
 4.843221e-03  -2.211977e-03  0 
 2.396502e-03  -2.933141e-03  0 
 2.478451e-03  -3.781190e-03  0 
 5.590165e-03  -2.963854e-03  0 
 5.584705e-03  -3.700518e-03  0 
 3.324198e-03  -1.878804e-03  0 
 4.060944e-03  -2.090601e-03  0 
 2.878295e-03  -1.781261e-03  0 
 2.639164e-03  -2.572213e-03  0 
 2.152860e-03  -4.788985e-03  0 
 1.943350e-03  -4.354378e-03  0 
 2.171644e-03  -3.411854e-03  0 
 4.161291e-03  -3.908987e-03  0 
 4.604443e-03  -2.777214e-03  0 
 3.547165e-03  -2.774190e-03  0 
 4.083371e-03  -2.899150e-03  0 
 4.264091e-03  -4.499948e-03  0 
 5.011028e-03  -3.234316e-03  0 
 3.091071e-03  -3.277628e-03  0 
 3.529728e-03  -4.052374e-03  0 
 4.732435e-03  -3.869874e-03  0 
 3.783581e-03  -3.404704e-03  0 
 4.382772e-03  -3.396193e-03  0 
 5.129085e-03  -2.681848e-03  0 
 2.919324e-03  -2.664164e-03  0 
VECTORS displacement_ITER25 FLOAT
 1.779584e-03  -2.073998e-03  0 
 5.778866e-03  -2.256629e-03  0 
 2.787133e-03  -2.482064e-03  0 
 2.948880e-03  -2.159244e-03  0 
 3.938653e-03  -2.225742e-03  0 
 4.863795e-03  -2.251155e-03  0 
 1.925783e-03  -3.138664e-03  0 
 2.008569e-03  -4.147680e-03  0 
 5.777259e-03  -3.168992e-03  0 
 5.772391e-03  -4.072409e-03  0 
 3.042199e-03  -1.888540e-03  0 
 3.960239e-03  -2.017037e-03  0 
 2.498804e-03  -1.950818e-03  0 
 2.323959e-03  -2.829897e-03  0 
 2.466396e-03  -4.352601e-03  0 
 1.781766e-03  -3.991998e-03  0 
 1.808579e-03  -3.451822e-03  0 
 4.034546e-03  -4.313805e-03  0 
 4.570976e-03  -2.940643e-03  0 
 3.291051e-03  -2.938438e-03  0 
 3.938102e-03  -3.088180e-03  0 
 4.162323e-03  -5.040208e-03  0 
 5.068593e-03  -3.498437e-03  0 
 2.745973e-03  -3.541048e-03  0 
 3.268861e-03  -4.478178e-03  0 
 4.731229e-03  -4.271534e-03  0 
 3.575084e-03  -3.697685e-03  0 
 4.302539e-03  -3.691527e-03  0 
 5.212803e-03  -2.823986e-03  0 
 2.548588e-03  -2.808408e-03  0 
VECTORS displacement_ITER26 FLOAT
 1.939411e-03  -1.903561e-03  0 
 5.694519e-03  -2.082729e-03  0 
 2.816330e-03  -2.665837e-03  0 
 3.046300e-03  -1.987934e-03  0 
 3.974834e-03  -2.053279e-03  0 
 4.839952e-03  -2.077483e-03  0 
 2.085896e-03  -2.904791e-03  0 
 2.169585e-03  -3.850801e-03  0 
 5.693411e-03  -2.935341e-03  0 
 5.688961e-03  -3.779766e-03  0 
 3.082880e-03  -1.879115e-03  0 
 3.954539e-03  -2.001196e-03  0 
 2.494313e-03  -1.944473e-03  0 
 2.287475e-03  -2.676851e-03  0 
 2.474533e-03  -3.288623e-03  0 
 2.051693e-03  -3.318586e-03  0 
 1.897304e-03  -2.925999e-03  0 
 4.063772e-03  -4.006722e-03  0 
 4.566130e-03  -2.722293e-03  0 
 3.368258e-03  -2.720905e-03  0 
 3.974099e-03  -2.860856e-03  0 
 4.182698e-03  -4.683721e-03  0 
 5.030916e-03  -3.243399e-03  0 
 2.857197e-03  -3.285801e-03  0 
 3.348136e-03  -4.161656e-03  0 
 4.714943e-03  -3.966602e-03  0 
 3.634375e-03  -3.431660e-03  0 
 4.314610e-03  -3.424906e-03  0 
 5.165883e-03  -2.612823e-03  0 
 2.669479e-03  -2.598753e-03  0 
VECTORS displacement_ITER27 FLOAT
 2.043741e-03  -2.285595e-03  0 
 5.435415e-03  -2.464323e-03  0 
 2.253836e-03  -2.622819e-03  0 
 3.059643e-03  -2.369937e-03  0 
 3.897517e-03  -2.435002e-03  0 
 4.671925e-03  -2.459140e-03  0 
 2.190894e-03  -3.195044e-03  0 
 2.275591e-03  -4.049407e-03  0 
 5.434564e-03  -3.226013e-03  0 
 5.430513e-03  -3.979878e-03  0 
 3.068937e-03  -2.275761e-03  0 
 3.862158e-03  -2.400014e-03  0 
 2.375811e-03  -2.234674e-03  0 
 2.080968e-03  -2.498147e-03  0 
 2.231709e-03  -2.815409e-03  0 
 2.150435e-03  -3.257171e-03  0 
 1.863222e-03  -2.921907e-03  0 
 3.975570e-03  -4.187665e-03  0 
 4.427351e-03  -3.035932e-03  0 
 3.352027e-03  -3.035176e-03  0 
 3.896610e-03  -3.160873e-03  0 
 4.080473e-03  -4.790483e-03  0 
 4.842426e-03  -3.501573e-03  0 
 2.891000e-03  -3.544524e-03  0 
 3.334870e-03  -4.329785e-03  0 
 4.558436e-03  -4.149538e-03  0 
 3.591571e-03  -3.674286e-03  0 
 4.201153e-03  -3.666037e-03  0 
 4.963222e-03  -2.937861e-03  0 
 2.717399e-03  -2.924318e-03  0 
VECTORS displacement_ITER28 FLOAT
 2.323646e-03  -2.730792e-03  0 
 4.958040e-03  -2.911063e-03  0 
 1.918550e-03  -2.573304e-03  0 
 3.151048e-03  -2.815606e-03  0 
 3.799749e-03  -2.881194e-03  0 
 4.384266e-03  -2.905875e-03  0 
 2.471440e-03  -3.451302e-03  0 
 2.556599e-03  -4.116810e-03  0 
 4.957353e-03  -3.483191e-03  0 
 4.953420e-03  -4.047669e-03  0 
 3.128511e-03  -2.700022e-03  0 
 3.761641e-03  -2.812943e-03  0 
 2.416326e-03  -2.549255e-03  0 
 2.062154e-03  -2.331482e-03  0 
 1.511945e-03  -2.705425e-03  0 
 2.160935e-03  -3.552194e-03  0 
 1.882980e-03  -2.967742e-03  0 
 3.856391e-03  -4.215114e-03  0 
 4.201286e-03  -3.340643e-03  0 
 3.382000e-03  -3.340117e-03  0 
 3.798818e-03  -3.436594e-03  0 
 3.932815e-03  -4.662852e-03  0 
 4.512554e-03  -3.691058e-03  0 
 3.024491e-03  -3.734308e-03  0 
 3.370634e-03  -4.331342e-03  0 