# vtk DataFile Version 3.1
this is an vtk file created by FEMAC
ASCII
DATASET UNSTRUCTURED_GRID
POINTS 31 FLOAT
2.000000 3.000000 0.000000
1.500000 2.000000 0.000000
1.500000 3.000000 0.000000
1.750000 3.000000 0.000000
2.000000 2.250000 0.000000
2.000000 2.500000 0.000000
2.000000 2.750000 0.000000
2.000000 3.250000 0.000000
2.250000 3.000000 0.000000
2.500000 3.000000 0.000000
2.750000 3.000000 0.000000
1.556014 2.528684 0.000000
1.745000 2.805000 0.000000
1.745000 2.195000 0.000000
1.831148 2.378957 0.000000
1.758843 2.566179 0.000000
1.339859 2.197089 0.000000
1.387500 2.413333 0.000000
1.588338 2.325606 0.000000
1.548715 2.715781 0.000000
1.805000 3.255000 0.000000
1.630982 3.182178 0.000000
2.195000 2.745000 0.000000
2.378957 2.831148 0.000000
2.566179 2.758843 0.000000
2.325606 2.588338 0.000000
2.769602 3.187596 0.000000
2.368420 3.207407 0.000000
2.275508 3.443567 0.000000
2.567037 3.328363 0.000000
2.181111 3.179494 0.000000
CELLS 42 168 
3 2 12  3
3 14  4  5
3 6 15  5
3 19 15 12
3 14 18 13
3 12 15  6
3 14 13  4
3 18  1 13
3 16  1 18
3 11 17 18
3 16 18 17
3 2 19 12
3 12  0  3
3 6  0 12
3 14  5 15
3 11 18 15
3 19 11 15
3 14 15 18
3 3 21  2
3 20 21  3
3 0 20  3
3 0  7 20
3 5 22  6
3 8 23  9
3 24 10  9
3 25 23 22
3 22 23  8
3 5 25 22
3 22  0  6
3 8  0 22
3 9 23 24
3 24 23 25
3 26  9 10
3 27  8  9
3 29  9 26
3 27  9 29
3 30  7  0
3 8 30  0
3 27 30  8
3 27 29 28
3 27 28 30
3 7 30 28
CELL_TYPES 42
5 5 5 5 5 5 5 5 5 5 5 5 5 5 5 5 5 5 5 5 5 5 5 5 5 5 5 5 5 5 5 5 5 5 5 5 5 5 5 5 5 5 
POINT_DATA 31
VECTORS displacement_ITER1 FLOAT
 -8.902874e-03  -4.399732e-02  0 
 3.842616e-03  -1.482822e-02  0 
 -8.979745e-03  2.740991e-03  0 
 -8.943942e-03  -2.063968e-02  0 
 -2.776084e-02  -2.699647e-02  0 
 -5.615473e-02  -4.403367e-02  0 
 -3.253480e-02  -4.402782e-02  0 
 1.435688e-02  -4.395946e-02  0 
 -8.855267e-03  -6.771893e-02  0 
 -8.805341e-03  -9.146749e-02  0 
 -8.775751e-03  -1.152805e-01  0 
 -3.477363e-02  -1.251086e-02  0 
 -2.567100e-02  -1.850514e-02  0 
 -1.939507e-02  -2.479929e-02  0 
 -4.192182e-02  -3.127393e-02  0 
 -4.346008e-02  -1.917716e-02  0 
 -1.822077e-02  -2.934940e-02  0 
 -2.515767e-02  -1.825627e-02  0 
 -3.026435e-02  -2.382130e-02  0 
 -3.259196e-02  6.193393e-04  0 
 1.483940e-02  -2.579668e-02  0 
 8.046404e-03  -9.538355e-03  0 
 -3.301701e-02  -6.247396e-02  0 
 -2.485053e-02  -7.993670e-02  0 
 -3.171300e-02  -9.772566e-02  0 
 -4.785887e-02  -7.487168e-02  0 
 -8.344871e-04  -1.266280e-01  0 
 6.055087e-03  -7.950841e-02  0 
 2.071970e-02  -7.055576e-02  0 
 1.270503e-02  -9.772362e-02  0 
 5.768683e-03  -6.283184e-02  0 
VECTORS displacement_ITER2 FLOAT
 2.969505e-02  -6.618777e-02  0 
 -2.795444e-02  1.996715e-02  0 
 2.959153e-02  -6.094749e-02  0 
 2.964099e-02  -6.357815e-02  0 
 4.734929e-03  -8.036307e-02  0 
 2.438433e-02  -6.626972e-02  0 
 2.704887e-02  -6.623845e-02  0 
 3.217836e-02  -6.614000e-02  0 
 2.973599e-02  -6.894466e-02  0 
 2.977048e-02  -7.169356e-02  0 
 2.979084e-02  -7.447260e-02  0 
 2.727546e-02  -2.592381e-02  0 
 3.106667e-02  -5.619242e-02  0 
 5.309042e-03  -4.010258e-02  0 
 2.021989e-02  -5.246228e-02  0 
 2.977936e-02  -4.901023e-02  0 
 -7.207525e-03  2.683523e-02  0 
 2.191222e-02  5.584410e-03  0 
 1.598518e-02  -2.214946e-02  0 
 2.761589e-02  -4.227665e-02  0 
 3.224716e-02  -6.418206e-02  0 
 3.149965e-02  -6.236794e-02  0 
 2.697847e-02  -6.832774e-02  0 
 2.791500e-02  -7.034184e-02  0 
 2.713092e-02  -7.239959e-02  0 
 2.529132e-02  -6.975569e-02  0 
 2.026804e-02  -7.825182e-02  0 
 2.699957e-02  -6.921134e-02  0 
 2.108615e-02  -6.671234e-02  0 
 2.197873e-02  -6.769840e-02  0 
 2.948826e-02  -6.915022e-02  0 
VECTORS displacement_ITER3 FLOAT
 1.331361e-02  -4.564013e-02  0 
 -3.113979e-02  1.543973e-02  0 
 1.320085e-02  -4.454879e-02  0 
 1.325401e-02  -4.509969e-02  0 
 -1.676280e-02  -6.677968e-02  0 
 9.453302e-03  -4.575869e-02  0 
 1.139371e-02  -4.571350e-02  0 
 1.370612e-02  -4.557589e-02  0 
 1.336325e-02  -4.769944e-02  0 
 1.340693e-02  -4.974184e-02  0 
 1.343127e-02  -5.181587e-02  0 
 1.156106e-02  -1.475840e-02  0 
 1.505391e-02  -3.870753e-02  0 
 -9.481837e-03  -2.679565e-02  0 
 4.420994e-03  -3.506746e-02  0 
 1.367255e-02  -3.306592e-02  0 
 -1.476915e-02  2.354494e-02  0 
 6.665440e-03  9.971612e-03  0 
 7.768994e-04  -1.179662e-02  0 
 1.282286e-02  -2.847349e-02  0 
 1.373334e-02  -4.524234e-02  0 
 1.359321e-02  -4.487986e-02  0 
 1.133263e-02  -4.723853e-02  0 
 1.202589e-02  -4.872892e-02  0 
 1.144945e-02  -5.025823e-02  0 
 1.009861e-02  -4.829339e-02  0 
 6.016428e-03  -5.348731e-02  0 
 1.100488e-02  -4.754932e-02  0 
 6.556035e-03  -4.570469e-02  0 
 7.207368e-03  -4.583671e-02  0 
 1.255484e-02  -4.743099e-02  0 
VECTORS displacement_ITER4 FLOAT
 -3.448313e-03  -3.190716e-02  0 
 1.774615e-03  -2.527486e-02  0 
 -3.559741e-03  -1.277632e-02  0 
 -3.508669e-03  -2.234460e-02  0 
 -2.793301e-02  -4.061890e-02  0 
 -2.610092e-02  -3.203574e-02  0 
 -1.477213e-02  -3.199007e-02  0 
 5.960039e-03  -3.183412e-02  0 
 -3.385330e-03  -4.338680e-02  0 
 -3.323024e-03  -5.486142e-02  0 
 -3.288785e-03  -6.639053e-02  0 
 -1.313542e-02  -1.735451e-02  0 
 -1.016535e-02  -2.011744e-02  0 
 -1.220375e-02  -2.738939e-02  0 
 -2.045198e-02  -2.698985e-02  0 
 -1.863312e-02  -2.079356e-02  0 
 -5.486130e-03  -2.695528e-02  0 
 -8.175796e-03  -1.894945e-02  0 
 -1.350346e-02  -2.392986e-02  0 
 -1.195685e-02  -1.198730e-02  0 
 6.167027e-03  -2.446369e-02  0 
 3.401198e-03  -1.782650e-02  0 
 -1.502202e-02  -4.084547e-02  0 
 -1.108153e-02  -4.927093e-02  0 
 -1.438519e-02  -5.786701e-02  0 
 -2.215363e-02  -4.682284e-02  0 
 7.755480e-05  -7.057651e-02  0 
 3.481227e-03  -4.859651e-02  0 
 1.060431e-02  -4.424408e-02  0 
 6.671588e-03  -5.661120e-02  0 
 2.923831e-03  -4.044113e-02  0 
VECTORS displacement_ITER5 FLOAT
 -2.158463e-03  -1.114810e-02  0 
 1.416785e-02  -2.425258e-02  0 
 -2.279526e-03  6.398449e-03  0 
 -2.224075e-03  -2.377092e-03  0 
 -2.121657e-02  -1.132138e-02  0 
 -2.423053e-02  -1.129076e-02  0 
 -1.319166e-02  -1.124113e-02  0 
 6.448601e-03  -1.106919e-02  0 
 -2.088198e-03  -2.235285e-02  0 
 -2.017116e-03  -3.355147e-02  0 
 -1.978606e-03  -4.481216e-02  0 
 -1.201379e-02  -4.055688e-03  0 
 -9.150624e-03  -1.258687e-03  0 
 -7.504169e-03  -9.631454e-03  0 
 -1.874962e-02  -7.642617e-03  0 
 -1.791438e-02  -3.034360e-03  0 
 3.055583e-03  -2.600152e-02  0 
 -6.336341e-03  -1.210511e-02  0 
 -1.111463e-02  -1.122821e-02  0 
 -1.024220e-02  4.107840e-03  0 
 6.637159e-03  -4.320674e-03  0 
 4.104214e-03  1.762448e-03  0 
 -1.343722e-02  -1.987099e-02  0 
 -9.592165e-03  -2.809036e-02  0 
 -1.281380e-02  -3.647999e-02  0 
 -2.038844e-02  -2.570088e-02  0 
 4.713766e-03  -4.919570e-02  0 
 5.957168e-03  -2.797736e-02  0 
 1.564420e-02  -2.433902e-02  0 
 1.124278e-02  -3.742311e-02  0 
 4.396886e-03  -1.915854e-02  0 
VECTORS displacement_ITER6 FLOAT
 2.105836e-03  -1.678990e-02  0 
 -3.030467e-03  -8.647468e-03  0 
 1.980829e-03  -1.724876e-02  0 
 2.039431e-03  -1.702072e-02  0 
 -1.446506e-02  -1.955669e-02  0 
 -2.516094e-03  -1.694882e-02  0 
 -1.973119e-04  -1.689115e-02  0 
 1.707042e-03  -1.670903e-02  0 
 2.169553e-03  -1.926833e-02  0 
 2.232164e-03  -2.172865e-02  0 
 2.265749e-03  -2.424051e-02  0 
 1.184804e-04  -5.679686e-03  0 
 2.425195e-03  -1.359710e-02  0 
 -7.838987e-03  -6.844702e-03  0 
 -5.340766e-03  -1.035021e-02  0 
 -1.520197e-04  -1.135629e-02  0 
 -2.020316e-03  -4.328185e-03  0 
 -1.035485e-03  -1.593265e-04  0 
 -5.469390e-03  -5.411645e-03  0 
 2.199498e-03  -1.021169e-02  0 
 1.714009e-03  -1.698426e-02  0 
 1.805293e-03  -1.717107e-02  0 
 -2.712138e-04  -1.871593e-02  0 
 5.626490e-04  -2.050438e-02  0 
 -1.311604e-04  -2.234684e-02  0 
 -1.747968e-03  -1.998184e-02  0 
 4.406792e-03  -2.794833e-02  0 
 3.736132e-03  -2.102682e-02  0 
 6.907143e-03  -2.075668e-02  0 
 6.035408e-03  -2.451487e-02  0 
 2.616475e-03  -1.823968e-02  0 
VECTORS displacement_ITER7 FLOAT
 8.698234e-03  -1.897363e-02  0 
 -1.371363e-02  7.662731e-03  0 
 8.563630e-03  -2.941115e-02  0 
 8.627399e-03  -2.419512e-02  0 
 -2.875556e-03  -2.062146e-02  0 
 1.595303e-02  -1.914272e-02  0 
 1.233714e-02  -1.908014e-02  0 
 3.300316e-03  -1.889121e-02  0 
 8.760948e-03  -1.551730e-02  0 
 8.819916e-03  -1.203461e-02  0 
 8.850873e-03  -8.598193e-03  0 
 1.294488e-02  -4.649602e-03  0 
 1.389982e-02  -1.950547e-02  0 
 -3.249310e-03  -3.214892e-03  0 
 8.202271e-03  -1.064031e-02  0 
 1.604954e-02  -1.486520e-02  0 
 -2.656038e-03  1.556351e-02  0 
 7.511251e-03  1.086895e-02  0 
 3.304574e-03  5.640139e-04  0 
 1.467597e-02  -1.756376e-02  0 
 3.206953e-03  -2.306418e-02  0 
 4.753149e-03  -2.672476e-02  0 
 1.238032e-02  -1.627448e-02  0 
 1.116660e-02  -1.369024e-02  0 
 1.219279e-02  -1.108019e-02  0 
 1.462798e-02  -1.443633e-02  0 
 7.964177e-03  -1.235860e-02  0 
 6.246094e-03  -1.479872e-02  0 
 5.160637e-03  -1.672604e-02  0 
 6.536070e-03  -1.442952e-02  0 
 5.622991e-03  -1.619581e-02  0 
VECTORS displacement_ITER8 FLOAT
 1.001497e-03  -8.790962e-03  0 
 3.831640e-03  -2.432091e-03  0 
 8.677162e-04  -1.149968e-02  0 
 9.310409e-04  -1.014961e-02  0 
 -3.419058e-03  1.849928e-03  0 
 1.194367e-03  -8.942769e-03  0 
 1.107476e-03  -8.890737e-03  0 
 -5.298680e-04  -8.710902e-03  0 
 1.069459e-03  -8.865743e-03  0 
 1.134424e-03  -8.921439e-03  0 
 1.168289e-03  -9.031033e-03  0 
 3.602044e-04  4.847977e-04  0 
 2.552682e-03  -7.223110e-03  0 
 -4.297582e-03  6.827113e-03  0 
 -2.625876e-03  -4.517196e-04  0 
 1.612467e-03  -4.404927e-03  0 
 8.952705e-04  -1.413055e-03  0 
 -1.805624e-03  4.492043e-03  0 
 -4.796994e-03  3.152149e-03  0 
 2.733765e-03  -5.414304e-03  0 
 -5.470499e-04  -9.866615e-03  0 
 -1.259543e-04  -1.083711e-02  0 
 1.083685e-03  -8.839559e-03  0 
 1.089203e-03  -8.859762e-03  0 
 1.092200e-03  -8.901236e-03  0 
 1.115533e-03  -8.849633e-03  0 
 3.566948e-03  -1.409083e-02  0 
 1.855022e-03  -1.023851e-02  0 
 4.825186e-03  -1.109980e-02  0 
 4.392690e-03  -1.342580e-02  0 
 6.957658e-04  -8.722528e-03  0 
VECTORS displacement_ITER9 FLOAT
 -3.022475e-03  4.436371e-05  0 
 2.154692e-02  -1.653739e-02  0 
 -3.152026e-03  7.963445e-03  0 
 -3.091105e-03  3.998844e-03  0 
 1.717275e-03  1.606260e-02  0 
 -9.335044e-03  -1.010224e-04  0 
 -6.173696e-03  -5.237991e-05  0 
 7.610830e-04  1.248004e-04  0 
 -2.948508e-03  -3.287854e-03  0 
 -2.875254e-03  -6.608418e-03  0 
 -2.835521e-03  -9.992890e-03  0 
 -5.145456e-03  2.242056e-04  0 
 -5.035433e-03  3.919084e-03  0 
 1.651467e-03  7.843331e-03  0 
 -6.692081e-03  4.077513e-03  0 
 -7.531830e-03  2.816659e-03  0 
 9.599056e-03  -2.056505e-02  0 
 -2.425555e-03  -7.702274e-03  0 
 -4.243003e-03  -1.300539e-03  0 
 -3.834970e-03  3.752052e-03  0 
 8.516158e-04  3.116979e-03  0 
 -2.750442e-04  5.845262e-03  0 
 -6.260696e-03  -2.538437e-03  0 
 -5.130053e-03  -4.960271e-03  0 
 -6.071245e-03  -7.447722e-03  0 
 -8.270939e-03  -4.252064e-03  0 
 3.138529e-03  -1.655368e-02  0 
 1.491525e-03  -6.681015e-03  0 
 8.488374e-03  -6.338662e-03  0 
 6.223742e-03  -1.336823e-02  0 
 1.045749e-04  -2.659271e-03  0 
VECTORS displacement_ITER10 FLOAT
 -2.988701e-04  -9.681903e-03  0 
 -8.995343e-03  2.448567e-03  0 
 -4.350756e-04  -1.156920e-02  0 
 -3.699094e-04  -1.063219e-02  0 
 -1.356406e-03  -6.231891e-03  0 
 5.438509e-03  -9.828114e-03  0 
 2.580383e-03  -9.776441e-03  0 
 -1.422316e-03  -9.604390e-03  0 
 -2.279098e-04  -6.981347e-03  0 
 -1.602610e-04  -4.260023e-03  0 
 -1.229512e-04  -1.590137e-03  0 
 2.327511e-03  -2.759947e-03  0 
 2.616161e-03  -9.316178e-03  0 
 -5.680446e-03  3.358432e-03  0 
 1.110091e-03  -4.214340e-03  0 
 4.796662e-03  -7.882921e-03  0 
 -4.797320e-03  5.288591e-03  0 
 -1.545529e-03  4.410123e-03  0 
 -3.349834e-03  1.574397e-03  0 
 4.285819e-03  -9.849006e-03  0 
 -1.429505e-03  -1.043941e-02  0 
 -1.128313e-03  -1.112337e-02  0 
 2.614112e-03  -7.561914e-03  0 
 1.666433e-03  -5.540900e-03  0 
 2.473548e-03  -3.502420e-03  0 
 4.384729e-03  -6.120328e-03  0 
 2.339399e-05  -5.149323e-03  0 
 -9.218052e-04  -6.774238e-03  0 
 -4.195390e-04  -7.807334e-03  0 
 -2.340933e-04  -7.095743e-03  0 
 -1.057853e-03  -7.942999e-03  0 
VECTORS displacement_ITER11 FLOAT
 -3.566716e-04  -8.255548e-03  0 
 -1.721815e-02  9.917022e-03  0 
 -4.957961e-04  -1.077678e-02  0 
 -4.288067e-04  -9.523981e-03  0 
 -2.678154e-03  -1.082412e-02  0 
 7.817557e-03  -8.398356e-03  0 
 3.742066e-03  -8.346922e-03  0 
 -1.798255e-03  -8.179849e-03  0 
 -2.849509e-04  -4.333609e-03  0 
 -2.172358e-04  -3.898964e-04  0 
 -1.796752e-04  3.505217e-03  0 
 4.077723e-03  -1.260195e-03  0 
 3.415997e-03  -8.442305e-03  0 
 -6.775191e-03  2.903091e-03  0 
 2.963917e-03  -4.035351e-03  0 
 6.988702e-03  -7.218271e-03  0 
 -8.362567e-03  1.413118e-02  0 
 -6.034352e-04  8.836029e-03  0 
 -2.225460e-03  3.704173e-03  0 
 5.585780e-03  -9.543753e-03  0 
 -1.811025e-03  -9.263086e-03  0 
 -1.418242e-03  -1.016650e-02  0 
 3.801028e-03  -5.181304e-03  0 
 2.434084e-03  -2.262515e-03  0 
 3.595000e-03  6.908585e-04  0 
 6.335803e-03  -3.101098e-03  0 
 -2.039993e-03  1.546451e-03  0 
 -2.090880e-03  -3.037465e-03  0 
 -3.374200e-03  -3.907067e-03  0 
 -2.836150e-03  -1.271601e-03  0 
 -1.644473e-03  -5.618777e-03  0 
VECTORS displacement_ITER12 FLOAT
 -3.412552e-03  2.203372e-03  0 
 9.250666e-03  -6.788703e-03  0 
 -3.545283e-03  1.154434e-02  0 
 -3.481470e-03  6.865718e-03  0 
 -1.307311e-03  4.688868e-03  0 
 -6.891788e-03  2.076590e-03  0 
 -5.145579e-03  2.119786e-03  0 
 1.085619e-03  2.275227e-03  0 
 -3.335888e-03  2.998681e-04  0 
 -3.259695e-03  -1.594673e-03  0 
 -3.217450e-03  -3.550834e-03  0 
 -3.429806e-03  4.760444e-04  0 
 -4.913724e-03  5.449972e-03  0 
 2.158320e-04  4.531871e-03  0 
 -3.980645e-03  2.674962e-03  0 
 -5.334544e-03  2.988429e-03  0 
 3.794771e-03  -1.012743e-02  0 
 -1.610875e-03  -4.529871e-03  0 
 -2.436713e-03  -4.555755e-04  0 
 -2.808235e-03  3.837501e-03  0 
 1.191271e-03  5.825251e-03  0 
 -1.452690e-04  9.050926e-03  0 
 -5.200117e-03  7.415188e-04  0 
 -4.555933e-03  -6.349364e-04  0 
 -5.084885e-03  -2.056797e-03  0 
 -6.322004e-03  -2.268156e-04  0 
 -3.997484e-04  -6.335004e-03  0 
 -2.147680e-04  -1.227904e-03  0 
 3.954845e-03  -5.595091e-05  0 
 1.991800e-03  -4.264827e-03  0 
 -4.485635e-04  5.588426e-04  0 
VECTORS displacement_ITER13 FLOAT
 -3.207520e-03  -2.844317e-03  0 
 -6.263932e-04  -7.458763e-04  0 
 -3.342549e-03  1.835749e-03  0 
 -3.277057e-03  -5.130180e-04  0 
 -2.811126e-03  -5.427815e-03  0 
 -3.067739e-03  -2.963204e-03  0 
 -3.128898e-03  -2.922651e-03  0 
 -1.038579e-03  -2.775798e-03  0 
 -3.131870e-03  -2.931264e-03  0 
 -3.057283e-03  -3.009165e-03  0 
 -3.016555e-03  -3.145803e-03  0 
 -1.232042e-03  -2.658372e-03  0 
 -3.054391e-03  -1.115021e-03  0 
 -1.224445e-03  -3.623428e-04  0 
 -1.672069e-03  -2.398796e-03  0 
 -1.989005e-03  -2.372218e-03  0 
 -1.077867e-03  -2.733691e-03  0 
 -8.823533e-04  -2.638234e-03  0 
 -1.501291e-03  -2.108479e-03  0 
 -1.140441e-03  -2.521432e-03  0 
 -9.791952e-04  -1.043437e-03  0 
 -1.638536e-03  5.608495e-04  0 
 -3.145994e-03  -2.888423e-03  0 
 -3.126326e-03  -2.929995e-03  0 
 -3.130108e-03  -2.992463e-03  0 
 -3.132873e-03  -2.908186e-03  0 
 -2.784889e-03  -4.286293e-03  0 
 -2.203887e-03  -3.075833e-03  0 
 -9.220454e-04  -2.238447e-03  0 
 -1.813422e-03  -3.575415e-03  0 
 -1.967577e-03  -3.023775e-03  0 
VECTORS displacement_ITER14 FLOAT
 -1.610627e-03  -3.029301e-04  0 
 -3.787321e-03  7.275978e-03  0 
 -1.744330e-03  2.777480e-03  0 
 -1.679694e-03  1.227786e-03  0 
 -2.797799e-03  -3.452915e-03  0 
 -2.503534e-04  -4.138969e-04  0 
 -9.205610e-04  -3.766526e-04  0 
 -2.387867e-04  -2.371840e-04  0 
 -1.537223e-03  2.274792e-04  0 
 -1.465818e-03  7.675262e-04  0 
 -1.427588e-03  1.252368e-03  0 
 2.406315e-04  1.966090e-03  0 
 -9.619389e-04  1.100974e-03  0 
 -1.584450e-03  3.634089e-03  0 
 -2.291862e-04  1.122096e-03  0 
 3.145528e-04  7.298118e-04  0 
 -2.523996e-03  5.960860e-03  0 
 -3.508365e-04  4.261979e-03  0 
 -9.376203e-04  3.258153e-03  0 
 4.242445e-04  4.384494e-04  0 
 -1.955051e-04  8.715999e-04  0 
 -6.224305e-04  1.921388e-03  0 
 -9.240981e-04  1.342343e-04  0 
 -1.116448e-03  5.456629e-04  0 
 -9.420136e-04  9.454018e-04  0 
 -5.269374e-04  4.362196e-04  0 
 -2.243053e-03  8.742022e-04  0 
 -1.438731e-03  6.380891e-04  0 
 -1.279676e-03  1.466770e-03  0 
 -1.803761e-03  1.147291e-03  0 
 -9.829978e-04  3.933485e-05  0 
VECTORS displacement_ITER15 FLOAT
 -1.326292e-03  -1.567681e-03  0 
 2.939242e-03  1.252859e-03  0 
 -1.453451e-03  1.337772e-03  0 
 -1.392960e-03  -1.244993e-04  0 
 -6.482518e-04  -1.157391e-03  0 
 -1.674017e-03  -1.667510e-03  0 
 -1.490243e-03  -1.636077e-03  0 
 -3.639669e-05  -1.505856e-03  0 
 -1.253940e-03  -1.885103e-03  0 
 -1.183674e-03  -2.195383e-03  0 
 -1.147219e-03  -2.560779e-03  0 
 -6.861432e-04  -3.761293e-04  0 
 -1.435102e-03  -2.129412e-04  0 
 8.539228e-04  1.592448e-03  0 
 -7.224477e-04  -1.553171e-04  0 
 -1.124545e-03  -3.931361e-04  0 
 7.742633e-04  -1.462717e-03  0 
 -1.718365e-04  -7.779743e-04  0 
 -3.649193e-04  -1.833643e-05  0 
 -8.030071e-04  -3.203475e-04  0 
 4.057849e-06  -4.609557e-04  0 
 -3.978558e-04  5.289856e-04  0 
 -1.508957e-03  -1.790603e-03  0 
 -1.408001e-03  -2.006115e-03  0 
 -1.480138e-03  -2.244532e-03  0 
 -1.646766e-03  -1.933447e-03  0 
 -1.501968e-03  -2.782029e-03  0 
 -8.636346e-04  -1.828404e-03  0 
 -3.018581e-04  -8.328764e-04  0 
 -9.518164e-04  -1.901435e-03  0 
 -5.997573e-04  -1.738729e-03  0 
VECTORS displacement_ITER16 FLOAT
 1.172517e-04  -2.330488e-03  0 
 -3.990384e-04  1.804565e-03  0 
 -5.061647e-07  -3.511980e-04  0 
 5.414376e-05  -1.349337e-03  0 
 -3.010122e-04  -2.071885e-03  0 
 -8.423338e-05  -2.428015e-03  0 
 2.645318e-05  -2.397299e-03  0 
 9.505546e-04  -2.271110e-03  0 
 1.858498e-04  -2.569129e-03  0 
 2.516553e-04  -2.799075e-03  0 
 2.847948e-04  -3.080328e-03  0 
 3.797332e-04  -4.313752e-04  0 
 8.647210e-05  -1.236467e-03  0 
 3.777577e-04  3.895481e-04  0 
 8.393650e-05  -9.776888e-04  0 
 2.554384e-04  -1.110488e-03  0 
 -2.294542e-04  9.240942e-04  0 
 4.282762e-04  3.706008e-04  0 
 1.288509e-04  -9.419547e-05  0 
 3.338717e-04  -9.064702e-04  0 
 9.809521e-04  -1.582681e-03  0 
 7.140175e-04  -9.134809e-04  0 
 9.540007e-06  -2.494085e-03  0 
 8.324162e-05  -2.651350e-03  0 
 3.379072e-05  -2.829645e-03  0 
 -8.013587e-05  -2.595515e-03  0 
 -1.409124e-05  -3.019337e-03  0 
 4.063990e-04  -2.385014e-03  0 
 7.726412e-04  -1.443081e-03  0 
 2.790788e-04  -2.316841e-03  0 
 6.154299e-04  -2.354527e-03  0 
VECTORS displacement_ITER17 FLOAT
 -4.288393e-05  -1.990724e-03  0 
 -1.182952e-03  2.751450e-04  0 
 -1.539728e-04  -6.443062e-04  0 
 -1.038679e-04  -1.324098e-03  0 
 5.747124e-04  -1.136490e-03  0 
 -3.837111e-04  -2.089702e-03  0 
 -2.036094e-04  -2.058581e-03  0 
 4.769083e-04  -1.931250e-03  0 
 2.462409e-05  -2.299160e-03  0 
 8.874635e-05  -2.597595e-03  0 
 1.203070e-04  -2.945799e-03  0 
 3.498726e-04  -9.665964e-04  0 
 -9.339962e-05  -1.240649e-03  0 
 4.664969e-04  -5.421192e-04  0 
 6.106547e-05  -1.377492e-03  0 
 3.476364e-05  -1.254514e-03  0 
 -2.185059e-04  3.056207e-04  0 
 6.084363e-04  -4.237663e-04  0 
 3.343748e-04  -9.700166e-04  0 
 1.337557e-04  -1.069847e-03  0 
 5.006213e-04  -1.486253e-03  0 
 3.262079e-04  -1.036673e-03  0 
 -2.221941e-04  -2.209702e-03  0 
 -1.248157e-04  -2.417661e-03  0 
 -1.938694e-04  -2.647208e-03  0 
 -3.546697e-04  -2.346644e-03  0 
 1.509235e-04  -3.128855e-03  0 
 2.575776e-04  -2.289888e-03  0 
 7.111023e-04  -1.606096e-03  0 
 3.403748e-04  -2.514238e-03  0 
 3.216461e-04  -2.084646e-03  0 
VECTORS displacement_ITER18 FLOAT
 -4.727512e-04  -1.914198e-03  0 
 -1.807681e-03  -5.015024e-04  0 
 -5.810850e-04  -1.354126e-03  0 
 -5.331696e-04  -1.639418e-03  0 
 -1.650914e-04  -1.291424e-03  0 
 -7.775628e-04  -2.014268e-03  0 
 -6.151442e-04  -1.983034e-03  0 
 -3.450571e-04  -1.854895e-03  0 
 -4.051806e-04  -2.205557e-03  0 
 -3.413407e-04  -2.485904e-03  0 
 -3.102766e-04  -2.815066e-03  0 
 -2.309034e-04  -1.174633e-03  0 
 -4.838322e-04  -1.485603e-03  0 
 -2.982389e-04  -8.155843e-04  0 
 -4.914521e-04  -1.480231e-03  0 
 -4.479321e-04  -1.424290e-03  0 
 -7.475745e-04  -1.291473e-04  0 
 -6.375252e-05  -6.988858e-04  0 
 -3.140780e-04  -1.175658e-03  0 
 -3.722559e-04  -1.335822e-03  0 
 -3.299630e-04  -1.714451e-03  0 
 -3.895379e-04  -1.538174e-03  0 
 -6.335133e-04  -2.120179e-03  0 
 -5.422341e-04  -2.314971e-03  0 
 -6.057196e-04  -2.531036e-03  0 
 -7.543182e-04  -2.247424e-03  0 
 -3.684995e-05  -3.127288e-03  0 
 -2.007363e-04  -2.301244e-03  0 
 3.144380e-04  -1.881367e-03  0 
 5.466469e-05  -2.693073e-03  0 
 -2.820973e-04  -1.990764e-03  0 
VECTORS displacement_ITER19 FLOAT
 -9.132246e-05  -1.819493e-03  0 
 -9.705827e-04  -1.179125e-03  0 
 -1.981476e-04  -2.017045e-03  0 
 -1.515611e-04  -1.922644e-03  0 
 -1.464201e-03  -1.818751e-03  0 
 -4.200884e-04  -1.918524e-03  0 
 -2.448223e-04  -1.888286e-03  0 
 -3.413007e-04  -1.761275e-03  0 
 -2.344424e-05  -2.122736e-03  0 
 4.025237e-05  -2.413856e-03  0 
 7.091941e-05  -2.752101e-03  0 
 -5.082875e-04  -9.003618e-04  0 
 -1.319612e-04  -1.645336e-03  0 
 -9.521254e-04  -3.886544e-04  0 
 -7.578356e-04  -1.041393e-03  0 
 -3.881707e-04  -1.329798e-03  0 
 -5.895788e-04  -8.603864e-04  0 
 -6.525348e-04  -6.266053e-04  0 
 -8.946451e-04  -7.217759e-04  0 
 -3.116121e-04  -1.314377e-03  0 
 -3.350272e-04  -1.914019e-03  0 
 -2.839223e-04  -2.001140e-03  0 
 -2.631065e-04  -2.034736e-03  0 
 -1.676689e-04  -2.237959e-03  0 
 -2.339563e-04  -2.462366e-03  0 
 -3.909374e-04  -2.167712e-03  0 
 4.825439e-04  -2.918429e-03  0 
 1.536132e-04  -2.264831e-03  0 
 7.097536e-04  -2.049420e-03  0 
 5.121602e-04  -2.685856e-03  0 
 -5.926709e-05  -1.868910e-03  0 
VECTORS displacement_ITER20 FLOAT
 -1.004812e-05  -1.546403e-03  0 
 -8.441906e-04  -1.595047e-03  0 
 -1.146874e-04  -1.389426e-03  0 
 -6.942858e-05  -1.471516e-03  0 
 -2.101614e-03  -1.517676e-03  0 
 -7.093336e-04  -1.644533e-03  0 
 -3.483905e-04  -1.615059e-03  0 
 -8.180509e-05  -1.487965e-03  0 
 5.762840e-05  -2.034588e-03  0 
 1.202586e-04  -2.509050e-03  0 
 1.498664e-04  -3.028262e-03  0 
 -1.080339e-03  -4.647446e-04  0 
 -2.760094e-04  -1.265145e-03  0 
 -1.666584e-03  -4.591527e-05  0 
 -1.296773e-03  -6.622431e-04  0 
 -8.159427e-04  -9.647573e-04  0 
 -8.221837e-04  -1.226409e-03  0 
 -1.350792e-03  -4.872291e-04  0 
 -1.574091e-03  -3.305496e-04  0 
 -6.479187e-04  -7.408599e-04  0 
 -7.208443e-05  -1.500827e-03  0 
 -7.223765e-05  -1.464767e-03  0 
 -3.700732e-04  -1.906099e-03  0 
 -2.109345e-04  -2.245083e-03  0 
 -3.300999e-04  -2.607057e-03  0 
 -6.133618e-04  -2.135276e-03  0 
 5.949972e-04  -2.941779e-03  0 
 3.366851e-04  -2.232321e-03  0 
 9.320925e-04  -1.979140e-03  0 
 6.805218e-04  -2.664252e-03  0 
 1.291061e-04  -1.743171e-03  0 
VECTORS displacement_ITER21 FLOAT
 3.120122e-04  -1.417439e-03  0 
 -7.975827e-04  -8.239757e-04  0 
 2.102198e-04  -1.258787e-03  0 
 2.539749e-04  -1.340986e-03  0 
 -8.575300e-04  -7.485779e-04  0 
 -2.649341e-04  -1.514199e-03  0 
 3.496076e-05  -1.485605e-03  0 
 2.427508e-04  -1.358906e-03  0 
 3.788585e-04  -1.843532e-03  0 
 4.395889e-04  -2.254494e-03  0 
 4.673636e-04  -2.708009e-03  0 
 -6.989287e-04  -3.750918e-04  0 
 5.020894e-05  -1.183518e-03  0 
 -1.140222e-03  -1.974577e-06  0 
 -7.525462e-04  -6.595293e-04  0 
 -3.978863e-04  -8.821677e-04  0 
 -6.582825e-04  -6.802626e-04  0 
 -9.616228e-04  -3.234691e-04  0 
 -1.060445e-03  -1.942041e-04  0 
 -3.602168e-04  -6.487623e-04  0 
 2.526235e-04  -1.369284e-03  0 
 2.524140e-04  -1.332988e-03  0 
 1.477712e-05  -1.729134e-03  0 
 1.523317e-04  -2.022344e-03  0 
 5.147325e-05  -2.337056e-03  0 
 -1.894533e-04  -1.925686e-03  0 
 8.544230e-04  -2.593266e-03  0 
 5.853778e-04  -2.033655e-03  0 
 1.008075e-03  -1.866785e-03  0 
 8.514702e-04  -2.401216e-03  0 
 4.116486e-04  -1.618125e-03  0 
VECTORS displacement_ITER22 FLOAT
 5.889102e-04  -1.258094e-03  0 
 -9.315270e-04  1.721342e-05  0 
 4.908980e-04  -8.255021e-04  0 
 5.327622e-04  -1.044015e-03  0 
 1.566671e-04  -5.027312e-04  0 
 -8.601754e-05  -1.353043e-03  0 
 2.627956e-04  -1.325437e-03  0 
 6.597595e-04  -1.200293e-03  0 
 6.543902e-04  -1.731382e-03  0 
 7.125077e-04  -2.188090e-03  0 
 7.375903e-04  -2.684916e-03  0 
 -3.206471e-04  -5.556057e-04  0 
 2.255787e-04  -1.020697e-03  0 
 -4.678647e-04  -6.134070e-04  0 
 -2.620872e-04  -9.174962e-04  0 
 -1.430779e-04  -8.416526e-04  0 
 -5.474701e-04  -2.810032e-04  0 
 -4.072627e-04  -5.835627e-04  0 
 -3.492381e-04  -4.912706e-04  0 
 -1.891442e-04  -5.437397e-04  0 
 6.720925e-04  -1.100981e-03  0 
 6.319545e-04  -9.698068e-04  0 
 2.419797e-04  -1.607296e-03  0 
 3.956379e-04  -1.935321e-03  0 
 2.812353e-04  -2.284897e-03  0 
 7.978175e-06  -1.828484e-03  0 
 1.461022e-03  -2.513840e-03  0 
 1.013921e-03  -1.947148e-03  0 
 1.541417e-03  -1.823296e-03  0 
 1.413599e-03  -2.407176e-03  0 
 8.001568e-04  -1.500311e-03  0 
VECTORS displacement_ITER23 FLOAT
 4.083844e-04  -1.092718e-03  0 
 -1.168756e-03  -1.225549e-04  0 
 3.129314e-04  -3.288141e-04  0 
 3.536425e-04  -7.124768e-04  0 
 -8.981027e-04  -1.404358e-03  0 
 -5.463647e-04  -1.185799e-03  0 
 -5.753651e-05  -1.159211e-03  0 
 6.473252e-04  -1.035223e-03  0 
 4.727516e-04  -1.704149e-03  0 
 5.286262e-04  -2.297573e-03  0 
 5.514044e-04  -2.928606e-03  0 
 -5.729817e-04  -7.578703e-04  0 
 -1.189312e-04  -8.039308e-04  0 
 -6.712663e-04  -1.561693e-03  0 
 -6.444284e-04  -1.097040e-03  0 
 -5.707811e-04  -7.461600e-04  0 
 -7.038242e-04  -6.573889e-04  0 
 -4.517726e-04  -1.113870e-03  0 
 -3.747092e-04  -9.645137e-04  0 
 -5.698595e-04  -3.403102e-04  0 
 6.629046e-04  -8.047926e-04  0 
 5.742872e-04  -5.588557e-04  0 
 -8.075525e-05  -1.550203e-03  0 
 1.204902e-04  -1.979956e-03  0 
 -3.364884e-05  -2.432513e-03  0 
 -4.014989e-04  -1.843404e-03  0 
 1.609493e-03  -2.635459e-03  0 
 1.018670e-03  -1.951785e-03  0 
 1.712551e-03  -1.782790e-03  0 
 1.556257e-03  -2.528122e-03  0 
 7.632199e-04  -1.413600e-03  0 
VECTORS displacement_ITER24 FLOAT
 2.267212e-04  -1.049706e-03  0 
 -1.011305e-03  -3.019287e-05  0 
 1.319926e-04  -3.927631e-04  0 
 1.725584e-04  -7.224064e-04  0 
 -1.583035e-03  -1.737488e-03  0 
 -5.906895e-04  -1.141136e-03  0 
 -1.701229e-04  -1.115650e-03  0 
 4.129506e-04  -9.916690e-04  0 
 2.903689e-04  -1.591532e-03  0 
 3.441742e-04  -2.113589e-03  0 
 3.647751e-04  -2.670623e-03  0 
 -6.396632e-04  -7.092490e-04  0 
 -2.532064e-04  -7.856702e-04  0 
 -7.729478e-04  -1.840270e-03  0 
 -8.197905e-04  -1.016180e-03  0 
 -6.774103e-04  -6.567721e-04  0 
 -6.557884e-04  -7.124463e-04  0 
 -4.452621e-04  -1.123678e-03  0 
 -3.958838e-04  -9.840019e-04  0 
 -7.357057e-04  -2.799928e-04  0 
 4.277926e-04  -8.024466e-04  0 
 3.544278e-04  -5.943950e-04  0 
 -1.916313e-04  -1.453314e-03  0 
 -1.454829e-05  -1.831764e-03  0 
 -1.480672e-04  -2.231367e-03  0 
 -4.685976e-04  -1.709949e-03  0 
 1.491756e-03  -2.322596e-03  0 
 7.889864e-04  -1.808795e-03  0 
 1.407503e-03  -1.672812e-03  0 
 1.314926e-03  -2.363899e-03  0 
 5.407393e-04  -1.325078e-03  0 
VECTORS displacement_ITER25 FLOAT
 1.711196e-04  -9.509478e-04  0 
 -2.663816e-04  1.490411e-04  0 
 7.574753e-05  -2.808436e-04  0 
 1.167741e-04  -6.165684e-04  0 
 -1.010387e-03  -3.686339e-04  0 
 -6.579085e-04  -1.040078e-03  0 
 -2.307741e-04  -1.016443e-03  0 
 3.638201e-04  -8.926978e-04  0 
 2.346466e-04  -1.498568e-03  0 
 2.861920e-04  -2.024052e-03  0 
 3.038094e-04  -2.581480e-03  0 
 -7.307531e-04  -4.904692e-04  0 
 -3.160427e-04  -6.390557e-04  0 
 -5.556848e-04  -1.419789e-03  0 
 -9.102732e-04  -6.835911e-04  0 
 -7.783194e-04  -4.181234e-04  0 
 -3.894730e-04  -8.782180e-04  0 
 -4.787479e-04  -1.046755e-03  0 
 -4.165227e-04  -7.515541e-04  0 
 -8.446823e-04  -6.211478e-05  0 
 3.785765e-04  -6.979588e-04  0 
 3.029028e-04  -4.861240e-04  0 
 -2.519073e-04  -1.359247e-03  0 
 -7.313511e-05  -1.741988e-03  0 
 -2.075303e-04  -2.145039e-03  0 
 -5.320114e-04  -1.618831e-03  0 
 1.589808e-03  -2.075241e-03  0 
 7.985099e-04  -1.674304e-03  0 
 1.497216e-03  -1.508411e-03  0 
 1.384397e-03  -2.214691e-03  0 
 5.227227e-04  -1.190788e-03  0 
VECTORS displacement_ITER26 FLOAT
 8.188831e-05  -8.791811e-04  0 
 -5.747266e-04  -1.307179e-04  0 
 -1.276005e-05  -1.638650e-04  0 
 2.785325e-05  -5.212810e-04  0 
 -7.637563e-04  -3.600141e-04  0 
 -5.910776e-04  -9.689994e-04  0 
 -2.415373e-04  -9.455071e-04  0 
 2.969268e-04  -8.197362e-04  0 
 1.450314e-04  -1.349611e-03  0 
 1.945355e-04  -1.795275e-03  0 
 2.099032e-04  -2.269929e-03  0 
 -5.685239e-04  -5.182710e-04  0 
 -3.105915e-04  -5.750216e-04  0 
 -7.191859e-04  -1.527922e-03  0 
 -8.029720e-04  -8.200055e-04  0 
 -6.476743e-04  -4.822896e-04  0 
 -3.710479e-04  -7.911250e-04  0 
 -3.387305e-04  -9.623383e-04  0 
 -3.687547e-04  -7.874028e-04  0 
 -6.839748e-04  -1.305643e-04  0 
 3.124200e-04  -6.070099e-04  0 
 2.299604e-04  -3.802575e-04  0 
 -2.611537e-04  -1.227960e-03  0 
 -1.094981e-04  -1.553134e-03  0 
 -2.206178e-04  -1.896771e-03  0 
 -4.916976e-04  -1.446571e-03  0 
 1.527317e-03  -1.651240e-03  0 
 6.956041e-04  -1.477206e-03  0 
 1.351672e-03  -1.327774e-03  0 
 1.259991e-03  -1.946530e-03  0 
 4.363751e-04  -1.067788e-03  0 
VECTORS displacement_ITER27 FLOAT
 -5.462358e-05  -7.135653e-04  0 
 -7.166038e-04  -6.011674e-04  0 
 -1.483631e-04  -3.148356e-04  0 
 -1.083447e-04  -5.129826e-04  0 
 -9.543322e-04  -8.043198e-04  0 
 -4.900557e-04  -8.043589e-04  0 
 -2.589236e-04  -7.807993e-04  0 
 1.775877e-06  -6.527488e-04  0 
 8.214601e-06  -1.066146e-03  0 
 5.624961e-05  -1.391975e-03  0 
 7.019125e-05  -1.744506e-03  0 
 -4.219488e-04  -4.355214e-04  0 
 -2.754241e-04  -5.241434e-04  0 
 -1.041918e-03  -1.443621e-03  0 
 -7.158531e-04  -8.443247e-04  0 
 -4.861761e-04  -5.085915e-04  0 
 -2.641086e-04  -7.618380e-04  0 
 -2.648350e-04  -7.313022e-04  0 