# vtk DataFile Version 3.1
this is an vtk file created by FEMAC
ASCII
DATASET UNSTRUCTURED_GRID
POINTS 814 FLOAT
0.000000 0.000000 0.000000
1.000000 0.000000 0.000000
2.000000 0.000000 0.000000
3.000000 0.000000 0.000000
4.000000 0.000000 0.000000
5.000000 0.000000 0.000000
6.000000 0.000000 0.000000
0.000000 1.000000 0.000000
1.000000 1.000000 0.000000
0.000000 2.000000 0.000000
1.000000 2.000000 0.000000
0.000000 3.000000 0.000000
1.000000 3.000000 0.000000
0.000000 4.000000 0.000000
1.000000 4.000000 0.000000
0.000000 5.000000 0.000000
1.000000 5.000000 0.000000
0.000000 6.000000 0.000000
1.000000 6.000000 0.000000
2.000000 1.000000 0.000000
2.000000 2.000000 0.000000
2.000000 3.000000 0.000000
2.000000 4.000000 0.000000
2.000000 5.000000 0.000000
2.000000 6.000000 0.000000
3.000000 1.000000 0.000000
3.000000 2.000000 0.000000
3.000000 3.000000 0.000000
3.000000 4.000000 0.000000
3.000000 5.000000 0.000000
3.000000 6.000000 0.000000
4.000000 1.000000 0.000000
4.000000 2.000000 0.000000
4.000000 3.000000 0.000000
4.000000 4.000000 0.000000
4.000000 5.000000 0.000000
4.000000 6.000000 0.000000
5.000000 1.000000 0.000000
5.000000 2.000000 0.000000
5.000000 3.000000 0.000000
5.000000 4.000000 0.000000
5.000000 5.000000 0.000000
5.000000 6.000000 0.000000
6.000000 1.000000 0.000000
6.000000 2.000000 0.000000
6.000000 3.000000 0.000000
6.000000 4.000000 0.000000
6.000000 5.000000 0.000000
6.000000 6.000000 0.000000
0.250000 0.000000 0.000000
0.500000 0.000000 0.000000
0.750000 0.000000 0.000000
1.250000 0.000000 0.000000
1.500000 0.000000 0.000000
1.750000 0.000000 0.000000
2.250000 0.000000 0.000000
2.500000 0.000000 0.000000
2.750000 0.000000 0.000000
3.250000 0.000000 0.000000
3.500000 0.000000 0.000000
3.750000 0.000000 0.000000
4.250000 0.000000 0.000000
4.500000 0.000000 0.000000
4.750000 0.000000 0.000000
5.250000 0.000000 0.000000
5.500000 0.000000 0.000000
5.750000 0.000000 0.000000
0.250000 1.000000 0.000000
0.500000 1.000000 0.000000
0.750000 1.000000 0.000000
0.000000 0.250000 0.000000
0.000000 0.500000 0.000000
0.000000 0.750000 0.000000
1.000000 0.250000 0.000000
1.000000 0.500000 0.000000
1.000000 0.750000 0.000000
0.250000 2.000000 0.000000
0.500000 2.000000 0.000000
0.750000 2.000000 0.000000
0.000000 1.250000 0.000000
0.000000 1.500000 0.000000
0.000000 1.750000 0.000000
1.000000 1.250000 0.000000
1.000000 1.500000 0.000000
1.000000 1.750000 0.000000
0.250000 3.000000 0.000000
0.500000 3.000000 0.000000
0.750000 3.000000 0.000000
0.000000 2.250000 0.000000
0.000000 2.500000 0.000000
0.000000 2.750000 0.000000
1.000000 2.250000 0.000000
1.000000 2.500000 0.000000
1.000000 2.750000 0.000000
0.250000 4.000000 0.000000
0.500000 4.000000 0.000000
0.750000 4.000000 0.000000
0.000000 3.250000 0.000000
0.000000 3.500000 0.000000
0.000000 3.750000 0.000000
1.000000 3.250000 0.000000
1.000000 3.500000 0.000000
1.000000 3.750000 0.000000
0.250000 5.000000 0.000000
0.500000 5.000000 0.000000
0.750000 5.000000 0.000000
0.000000 4.250000 0.000000
0.000000 4.500000 0.000000
0.000000 4.750000 0.000000
1.000000 4.250000 0.000000
1.000000 4.500000 0.000000
1.000000 4.750000 0.000000
0.250000 6.000000 0.000000
0.500000 6.000000 0.000000
0.750000 6.000000 0.000000
0.000000 5.250000 0.000000
0.000000 5.500000 0.000000
0.000000 5.750000 0.000000
1.000000 5.250000 0.000000
1.000000 5.500000 0.000000
1.000000 5.750000 0.000000
1.250000 1.000000 0.000000
1.500000 1.000000 0.000000
1.750000 1.000000 0.000000
2.000000 0.250000 0.000000
2.000000 0.500000 0.000000
2.000000 0.750000 0.000000
1.250000 2.000000 0.000000
1.500000 2.000000 0.000000
1.750000 2.000000 0.000000
2.000000 1.250000 0.000000
2.000000 1.500000 0.000000
2.000000 1.750000 0.000000
1.250000 3.000000 0.000000
1.500000 3.000000 0.000000
1.750000 3.000000 0.000000
2.000000 2.250000 0.000000
2.000000 2.500000 0.000000
2.000000 2.750000 0.000000
1.250000 4.000000 0.000000
1.500000 4.000000 0.000000
1.750000 4.000000 0.000000
2.000000 3.250000 0.000000
2.000000 3.500000 0.000000
2.000000 3.750000 0.000000
1.250000 5.000000 0.000000
1.500000 5.000000 0.000000
1.750000 5.000000 0.000000
2.000000 4.250000 0.000000
2.000000 4.500000 0.000000
2.000000 4.750000 0.000000
1.250000 6.000000 0.000000
1.500000 6.000000 0.000000
1.750000 6.000000 0.000000
2.000000 5.250000 0.000000
2.000000 5.500000 0.000000
2.000000 5.750000 0.000000
2.250000 1.000000 0.000000
2.500000 1.000000 0.000000
2.750000 1.000000 0.000000
3.000000 0.250000 0.000000
3.000000 0.500000 0.000000
3.000000 0.750000 0.000000
2.250000 2.000000 0.000000
2.500000 2.000000 0.000000
2.750000 2.000000 0.000000
3.000000 1.250000 0.000000
3.000000 1.500000 0.000000
3.000000 1.750000 0.000000
2.250000 3.000000 0.000000
2.500000 3.000000 0.000000
2.750000 3.000000 0.000000
3.000000 2.250000 0.000000
3.000000 2.500000 0.000000
3.000000 2.750000 0.000000
2.250000 4.000000 0.000000
2.500000 4.000000 0.000000
2.750000 4.000000 0.000000
3.000000 3.250000 0.000000
3.000000 3.500000 0.000000
3.000000 3.750000 0.000000
2.250000 5.000000 0.000000
2.500000 5.000000 0.000000
2.750000 5.000000 0.000000
3.000000 4.250000 0.000000
3.000000 4.500000 0.000000
3.000000 4.750000 0.000000
2.250000 6.000000 0.000000
2.500000 6.000000 0.000000
2.750000 6.000000 0.000000
3.000000 5.250000 0.000000
3.000000 5.500000 0.000000
3.000000 5.750000 0.000000
3.250000 1.000000 0.000000
3.500000 1.000000 0.000000
3.750000 1.000000 0.000000
4.000000 0.250000 0.000000
4.000000 0.500000 0.000000
4.000000 0.750000 0.000000
3.250000 2.000000 0.000000
3.500000 2.000000 0.000000
3.750000 2.000000 0.000000
4.000000 1.250000 0.000000
4.000000 1.500000 0.000000
4.000000 1.750000 0.000000
3.250000 3.000000 0.000000
3.500000 3.000000 0.000000
3.750000 3.000000 0.000000
4.000000 2.250000 0.000000
4.000000 2.500000 0.000000
4.000000 2.750000 0.000000
3.250000 4.000000 0.000000
3.500000 4.000000 0.000000
3.750000 4.000000 0.000000
4.000000 3.250000 0.000000
4.000000 3.500000 0.000000
4.000000 3.750000 0.000000
3.250000 5.000000 0.000000
3.500000 5.000000 0.000000
3.750000 5.000000 0.000000
4.000000 4.250000 0.000000
4.000000 4.500000 0.000000
4.000000 4.750000 0.000000
3.250000 6.000000 0.000000
3.500000 6.000000 0.000000
3.750000 6.000000 0.000000
4.000000 5.250000 0.000000
4.000000 5.500000 0.000000
4.000000 5.750000 0.000000
4.250000 1.000000 0.000000
4.500000 1.000000 0.000000
4.750000 1.000000 0.000000
5.000000 0.250000 0.000000
5.000000 0.500000 0.000000
5.000000 0.750000 0.000000
4.250000 2.000000 0.000000
4.500000 2.000000 0.000000
4.750000 2.000000 0.000000
5.000000 1.250000 0.000000
5.000000 1.500000 0.000000
5.000000 1.750000 0.000000
4.250000 3.000000 0.000000
4.500000 3.000000 0.000000
4.750000 3.000000 0.000000
5.000000 2.250000 0.000000
5.000000 2.500000 0.000000
5.000000 2.750000 0.000000
4.250000 4.000000 0.000000
4.500000 4.000000 0.000000
4.750000 4.000000 0.000000
5.000000 3.250000 0.000000
5.000000 3.500000 0.000000
5.000000 3.750000 0.000000
4.250000 5.000000 0.000000
4.500000 5.000000 0.000000
4.750000 5.000000 0.000000
5.000000 4.250000 0.000000
5.000000 4.500000 0.000000
5.000000 4.750000 0.000000
4.250000 6.000000 0.000000
4.500000 6.000000 0.000000
4.750000 6.000000 0.000000
5.000000 5.250000 0.000000
5.000000 5.500000 0.000000
5.000000 5.750000 0.000000
5.250000 1.000000 0.000000
5.500000 1.000000 0.000000
5.750000 1.000000 0.000000
6.000000 0.250000 0.000000
6.000000 0.500000 0.000000
6.000000 0.750000 0.000000
5.250000 2.000000 0.000000
5.500000 2.000000 0.000000
5.750000 2.000000 0.000000
6.000000 1.250000 0.000000
6.000000 1.500000 0.000000
6.000000 1.750000 0.000000
5.250000 3.000000 0.000000
5.500000 3.000000 0.000000
5.750000 3.000000 0.000000
6.000000 2.250000 0.000000
6.000000 2.500000 0.000000
6.000000 2.750000 0.000000
5.250000 4.000000 0.000000
5.500000 4.000000 0.000000
5.750000 4.000000 0.000000
6.000000 3.250000 0.000000
6.000000 3.500000 0.000000
6.000000 3.750000 0.000000
5.250000 5.000000 0.000000
5.500000 5.000000 0.000000
5.750000 5.000000 0.000000
6.000000 4.250000 0.000000
6.000000 4.500000 0.000000
6.000000 4.750000 0.000000
5.250000 6.000000 0.000000
5.500000 6.000000 0.000000
5.750000 6.000000 0.000000
6.000000 5.250000 0.000000
6.000000 5.500000 0.000000
6.000000 5.750000 0.000000
0.354092 0.524248 0.000000
0.804015 0.668485 0.000000
0.176539 0.642203 0.000000
0.279348 0.239607 0.000000
0.653111 0.819895 0.000000
0.376524 0.781795 0.000000
0.167416 0.439302 0.000000
0.576925 0.611220 0.000000
0.521903 0.318733 0.000000
0.757669 0.416286 0.000000
0.132337 0.122402 0.000000
0.841425 0.847676 0.000000
0.160613 0.834800 0.000000
0.734095 0.185003 0.000000
0.871024 0.108751 0.000000
0.272476 1.537430 0.000000
0.660302 1.785301 0.000000
0.660045 1.212404 0.000000
0.162952 1.171693 0.000000
0.825570 1.361866 0.000000
0.825957 1.628272 0.000000
0.594871 1.497465 0.000000
0.400442 1.782533 0.000000
0.372389 1.253823 0.000000
0.165804 1.339408 0.000000
0.847252 1.832715 0.000000
0.847123 1.164854 0.000000
0.153820 1.761660 0.000000
0.272476 2.537430 0.000000
0.660302 2.785301 0.000000
0.660045 2.212404 0.000000
0.162952 2.171693 0.000000
0.825570 2.361866 0.000000
0.825957 2.628272 0.000000
0.594871 2.497465 0.000000
0.400442 2.782533 0.000000
0.372389 2.253823 0.000000
0.165804 2.339408 0.000000
0.847252 2.832715 0.000000
0.847123 2.164854 0.000000
0.153820 2.761660 0.000000
0.272476 3.537430 0.000000
0.660302 3.785301 0.000000
0.660045 3.212404 0.000000
0.162952 3.171693 0.000000
0.825570 3.361866 0.000000
0.825957 3.628272 0.000000
0.594871 3.497465 0.000000
0.400442 3.782533 0.000000
0.372389 3.253823 0.000000
0.165804 3.339408 0.000000
0.847252 3.832715 0.000000
0.847123 3.164854 0.000000
0.153820 3.761660 0.000000
0.272476 4.537430 0.000000
0.660302 4.785301 0.000000
0.660045 4.212404 0.000000
0.162952 4.171693 0.000000
0.825570 4.361866 0.000000
0.825957 4.628272 0.000000
0.594871 4.497465 0.000000
0.400442 4.782533 0.000000
0.372389 4.253823 0.000000
0.165804 4.339408 0.000000
0.847252 4.832715 0.000000
[...]
POINT_DATA 814
SCALARS CONDID_1 FLOAT
LOOKUP_TABLE default
 1 
 0 
 0 
 0 
 0 
 0 
 0 
 0 
 0 
 0 
 0 
 0 
 0 
 0 
 0 
 0 
 0 
 0 
 0 
 0 
 0 
 0 
 0 
 0 
 0 
 0 
 0 
 0 
 0 
 0 
 0 
 0 
 0 
 0 
 0 
 0 
 0 
 0 
 0 
 0 
 0 
 0 
 0 
 0 
 0 
 0 
 0 
 0 
 0 
 0 
 0 
 0 
 0 
 0 
 0 
 0 
 0 
 0 
 0 
 0 
 0 
 0 
 0 
 0 
 0 
 0 
 0 
 0 
 0 
 0 
 0 
 0 
 0 
 0 
 0 
 0 
 0 
 0 
 0 
 0 
 0 
 0 
 0 
 0 
 0 
 0 
 0 
 0 
 0 
 0 
 0 
 0 
 0 
 0 
 0 
 0 
 0 
 0 
 0 
 0 
 0 
 0 
 0 
 0 
 0 
 0 
 0 
 0 
 0 
 0 
 0 
 0 
 0 
 0 
 0 
 0 
 0 
 0 
 0 
 0 
 0 
 0 
 0 
 0 
 0 
 0 
 0 
 0 
 0 
 0 
 0 
 0 
 0 
 0 
 0 
 0 
 0 
 0 
 0 
 0 
 0 
 0 
 0 
 0 
 0 
 0 
 0 
 0 
 0 
 0 
 0 
 0 
 0 
 0 
 0 
 0 
 0 
 0 
 0 
 0 
 0 
 0 
 0 
 0 
 0 
 0 
 0 
 0 
 0 
 0 
 0 
 0 
 0 
 0 
 0 
 0 
 0 
 0 
 0 
 0 
 0 
 0 
 0 
 0 
 0 
 0 
 0 
 0 
 0 
 0 
 0 
 0 
 0 
 0 
 0 
 0 
 0 
 0 
 0 
 0 
 0 
 0 
 0 
 0 
 0 
 0 
 0 
 0 
 0 
 0 
 0 
 0 
 0 
 0 
 0 
 0 
 0 
 0 
 0 
 0 
 0 
 0 
 0 
 0 
 0 
 0 
 0 
 0 
 0 
 0 
 0 
 0 
 0 
 0 
 0 
 0 
 0 
 0 
 0 
 0 
 0 
 0 
 0 
 0 
 0 
 0 
 0 
 0 
 0 
 0 
 0 
 0 
 0 
 0 
 0 
 0 
 0 
 0 
 0 
 0 
 0 
 0 
 0 
 0 
 0 
 0 
 0 
 0 
 0 
 0 
 0 
 0 
 0 
 0 
 0 
 0 
 0 
 0 
 0 
 0 
 0 
 0 
 0 
 0 
 0 
 0 
 0 
 0 
 0 
 0 
 0 
 0 
 0 
 0 
 0 
 0 
 0 
 0 
 0 
 0 
 0 
 0 
 0 
 0 
 0 
 0 
 0 
 0 
 0 
 0 
 0 
 0 
 0 
 0 
 0 
 0 
 0 
 0 
 0 
 0 
 0 
 0 
 0 
 0 
 0 
 0 
 0 
 0 
 0 
 0 
 0 
 0 
 0 
 0 
 0 
 0 
 0 
 0 
 0 
 0 
 0 
 0 
 0 
 0 
 0 
 0 
 0 
 0 
 0 
 0 
 0 
 0 
 0 
 0 
 0 
 0 
 0 
 0 
 0 
 0 
 0 
 0 
 0 
 0 
 0 
 0 
 0 
 0 
 0 
 0 
 0 
 0 
 0 
 0 
 0 
 0 
 0 
 0 
 0 
 0 
 0 
 0 
 0 
 0 
 0 
 0 
 0 
 0 
 0 
 0 
 0 
 0 
 0 
 0 
 0 
 0 
 0 
 0 
 0 
 0 
 0 
 0 
 0 
 0 
 0 
 0 
 0 
 0 
 0 
 0 
 0 
 0 
 0 
 0 
 0 
 0 
 0 
 0 
 0 
 0 
 0 
 0 
 0 
 0 
 0 
 0 
 0 
 0 
 0 
 0 
 0 
 0 
 0 
 0 
 0 
 0 
 0 
 0 
 0 
 0 
 0 
 0 
 0 
 0 
 0 
 0 
 0 
 0 
 0 
 0 
 0 
 0 
 0 
 0 
 0 
 0 
 0 
 0 
 0 
 0 
 0 
 0 
 0 
 0 
 0 
 0 
 0 
 0 
 0 
 0 
 0 
 0 
 0 
 0 
 0 
 0 
 0 
 0 
 0 
 0 
 0 
 0 
 0 
 0 
 0 
 0 
 0 
 0 
 0 
 0 
 0 
 0 
 0 
 0 
 0 
 0 
 0 
 0 
 0 
 0 
 0 
 0 
 0 
 0 
 0 
 0 
 0 
 0 
 0 
 0 
 0 
 0 
 0 
 0 
 0 
 0 
 0 
 0 
 0 
 0 
 0 
 0 
 0 
 0 
 0 
 0 
 0 
 0 
 0 
 0 
 0 
 0 
 0 
 0 
 0 
 0 
 0 
 0 
 0 
 0 
 0 
 0 
 0 
 0 
 0 
 0 
 0 
 0 
 0 
 0 
 0 
 0 
 0 
 0 
 0 
 0 
 0 
 0 
 0 
 0 
 0 
 0 
 0 
 0 
 0 
 0 
 0 
 0 
 0 
 0 
 0 
 0 
 0 
 0 
 0 
 0 
 0 
 0 
 0 
 0 
 0 
 0 
 0 
 0 
 0 
 0 
 0 
 0 
 0 
 0 
 0 
 0 
 0 
 0 
 0 
 0 
 0 
 0 
 0 
 0 
 0 
 0 
 0 
 0 
 0 
 0 
 0 
 0 
 0 
 0 
 0 
 0 
 0 
 0 
 0 
 0 
 0 
 0 
 0 
 0 
 0 
 0 
 0 
 0 
 0 
 0 
 0 
 0 
 0 
 0 
 0 
 0 
 0 
 0 
 0 
 0 
 0 
 0 
 0 
 0 
 0 
 0 
 0 
 0 
 0 
 0 
 0 
 0 
 0 
 0 
 0 
 0 
 0 
 0 
 0 
 0 
 0 
 0 
 0 
 0 
 0 
 0 
 0 
 0 
 0 
 0 
 0 
 0 
 0 
 0 
 0 
 0 
 0 
 0 
 0 
 0 
 0 
 0 
 0 
 0 
 0 
 0 
 0 
 0 
 0 
 0 
 0 
 0 
 0 
 0 
 0 
 0 
 0 
 0 
 0 
 0 
 0 
 0 
 0 
 0 
 0 
 0 
 0 
 0 
 0 
 0 
 0 
 0 
 0 
 0 
 0 
 0 
 0 
 0 
 0 
 0 
 0 
 0 
 0 
 0 
 0 
 0 
 0 
 0 
 0 
 0 
 0 
 0 
 0 
 0 
 0 
 0 
 0 
 0 
 0 
 0 
 0 
 0 
 0 
 0 
 0 
 0 
 0 
 0 
 0 
 0 
 0 
 0 
 0 
 0 
 0 
 0 
 0 
 0 
 0 
 0 
 0 
 0 
 0 
 0 
 0 
 0 
 0 
 0 
 0 
 0 
 0 
 0 
 0 
 0 
 0 
 0 
 0 
 0 
 0 
 0 
 0 
 0 
 0 
 0 
 0 
 0 
 0 
 0 
 0 
 0 
 0 
 0 
 0 
 0 
 0 
 0 
 0 
 0 
 0 
 0 
 0 
 0 
 0 
 0 
 0 
 0 
 0 
 0 
 0 
 0 
 0 
 0 
 0 
 0 
 0 
 0 
 0 
 0 
SCALARS CONDID_2 FLOAT
LOOKUP_TABLE default
 1 
 0 
 0 
 0 
 0 
 0 
 0 
 1 
 0 
 1 
 0 
 1 
 0 
 1 
 0 
 1 
 0 
 1 
 0 
 0 
 0 
 0 
 0 
 0 
 0 
 0 
 0 
 0 
 0 
 0 
 0 
 0 
 0 
 0 
 0 
 0 
 0 
 0 
 0 
 0 
 0 
 0 
 0 
 0 
 0 
 0 
 0 
 0 
 0 
 0 
 0 
 0 
 0 
 0 
 0 
 0 
 0 
 0 
 0 
 0 
 0 
 0 
 0 
 0 
 0 
 0 
 0 
 0 
 0 
 0 
 1 
 1 
 1 
 0 
 0 
 0 
 0 
 0 
 0 
 1 
 1 
 1 
 0 
 0 
 0 
 0 
 0 
 0 
 1 
 1 
 1 
 0 
 0 
 0 
 0 
 0 
 0 
 1 
 1 
 1 
 0 
 0 
 0 
 0 
 0 
 0 
 1 
 1 
 1 
 0 
 0 
 0 
 0 
 0 
 0 
 1 
 1 
 1 
 0 
 0 
 0 
 0 
 0 
 0 
 0 
 0 
 0 
 0 
 0 
 0 
 0 
 0 
 0 
 0 
 0 
 0 
 0 
 0 
 0 
 0 
 0 
 0 
 0 
 0 
 0 
 0 
 0 
 0 
 0 
 0 
 0 
 0 
 0 
 0 
 0 
 0 
 0 
 0 
 0 
 0 
 0 
 0 
 0 
 0 
 0 
 0 
 0 
 0 
 0 
 0 
 0 
 0 
 0 
 0 
 0 
 0 
 0 
 0 
 0 
 0 
 0 
 0 
 0 
 0 
 0 
 0 
 0 
 0 
 0 
 0 
 0 
 0 
 0 
 0 
 0 
 0 
 0 
 0 
 0 
 0 
 0 
 0 
 0 
 0 
 0 
 0 
 0 
 0 
 0 
 0 
 0 
 0 
 0 
 0 
 0 
 0 
 0 
 0 
 0 
 0 
 0 
 0 
 0 
 0 
 0 
 0 
 0 
 0 
 0 
 0 
 0 
 0 
 0 
 0 
 0 
 0 
 0 
 0 
 0 
 0 
 0 
 0 
 0 
 0 
 0 
 0 
 0 
 0 
 0 
 0 
 0 
 0 
 0 
 0 
 0 
 0 
 0 
 0 
 0 
 0 
 0 
 0 
 0 
 0 
 0 
 0 
 0 
 0 
 0 
 0 
 0 
 0 
 0 
 0 
 0 
 0 
 0 
 0 
 0 
 0 
 0 
 0 
 0 
 0 
 0 
 0 
 0 
 0 
 0 
 0 
 0 
 0 
 0 
 0 
 0 
 0 
 0 
 0 
 0 
 0 
 0 
 0 
 0 
 0 
 0 
 0 
 0 
 0 
 0 
 0 
 0 
 0 
 0 
 0 
 0 
 0 
 0 
 0 
 0 
 0 
 0 
 0 
 0 
 0 
 0 
 0 
 0 
 0 
 0 
 0 
 0 
 0 
 0 
 0 
 0 
 0 
 0 
 0 
 0 
 0 
 0 
 0 
 0 
 0 
 0 
 0 
 0 
 0 
 0 
 0 
 0 
 0 
 0 
 0 
 0 
 0 
 0 
 0 
 0 
 0 
 0 
 0 
 0 
 0 
 0 
 0 
 0 
 0 
 0 
 0 
 0 
 0 
 0 
 0 
 0 
 0 
 0 
 0 
 0 
 0 
 0 
 0 
 0 
 0 
 0 
 0 
 0 
 0 
 0 
 0 
 0 
 0 
 0 
 0 
 0 
 0 
 0 
 0 
 0 
 0 
 0 
 0 
 0 
 0 
 0 
 0 
 0 
 0 
 0 
 0 
 0 
 0 
 0 
 0 
 0 
 0 
 0 
 0 
 0 
 0 
 0 
 0 
 0 
 0 
 0 
 0 
 0 
 0 
 0 
 0 
 0 
 0 
 0 
 0 
 0 
 0 
 0 
 0 
 0 
 0 
 0 
 0 
 0 
 0 
 0 
 0 
 0 
 0 
 0 
 0 
 0 
 0 
 0 
 0 
 0 
 0 
 0 
 0 
 0 
 0 
 0 
 0 
 0 
 0 
 0 
 0 
 0 
 0 
 0 
 0 
 0 
 0 
 0 
 0 
 0 
 0 
 0 
 0 
 0 
 0 
 0 
 0 
 0 
 0 
 0 
 0 
 0 
 0 
 0 
 0 
 0 
 0 
 0 
 0 
 0 
 0 
 0 
 0 
 0 
 0 
 0 
 0 
 0 
 0 
 0 
 0 
 0 
 0 
 0 
 0 
 0 
 0 
 0 
 0 
 0 
 0 
 0 
 0 
 0 
 0 
 0 
 0 
 0 
 0 
 0 
 0 
 0 
 0 
 0 
 0 
 0 
 0 
 0 
 0 
 0 
 0 
 0 
 0 
 0 
 0 
 0 
 0 
 0 
 0 
 0 
 0 
 0 
 0 
 0 
 0 
 0 
 0 
 0 
 0 
 0 
 0 
 0 
 0 
 0 
 0 
 0 
 0 
 0 
 0 
 0 
 0 
 0 
 0 
 0 
 0 
 0 
 0 
 0 
 0 
 0 
 0 
 0 
 0 
 0 
 0 
 0 
 0 
 0 
 0 
 0 
 0 
 0 
 0 
 0 
 0 
 0 
 0 
 0 
 0 
 0 
 0 
 0 
 0 
 0 
 0 
 0 
 0 
 0 
 0 
 0 
 0 
 0 
 0 
 0 
 0 
 0 
 0 
 0 
 0 
 0 
 0 
 0 
 0 
 0 
 0 
 0 
 0 
 0 
 0 
 0 
 0 
 0 
 0 
 0 
 0 
 0 
 0 
 0 
 0 
 0 
 0 
 0 
 0 
 0 
 0 
 0 
 0 
 0 
 0 
 0 
 0 
 0 
 0 
 0 
 0 
 0 
 0 
 0 
 0 
 0 
 0 
 0 
 0 
 0 
 0 
 0 
 0 
 0 
 0 
 0 
 0 
 0 
 0 
 0 
 0 
 0 
 0 
 0 
 0 
 0 
 0 
 0 
 0 
 0 
 0 
 0 
 0 
 0 
 0 
 0 
 0 
 0 
 0 
 0 
 0 
 0 
 0 
 0 
 0 
 0 
 0 
 0 
 0 
 0 
 0 
 0 
 0 
 0 
 0 
 0 
 0 
 0 
 0 
 0 
 0 
 0 
 0 
 0 
 0 
 0 
 0 
 0 
 0 
 0 
 0 
 0 
 0 
 0 
 0 
 0 
 0 
 0 
 0 
 0 
 0 
 0 
 0 
 0 
 0 
 0 
 0 
 0 
 0 
 0 
 0 
 0 
 0 
 0 
 0 
 0 
 0 
 0 
 0 
 0 
 0 
 0 
 0 
 0 
 0 
 0 
 0 
 0 
 0 
 0 
 0 
 0 
 0 
 0 
 0 
 0 
 0 
 0 
 0 
 0 
 0 
 0 
 0 
 0 
 0 
 0 
 0 
 0 
 0 
 0 
 0 
 0 
 0 
 0 
 0 
 0 
 0 
 0 
 0 
 0 
 0 
 0 
 0 
 0 
 0 
 0 
 0 
 0 
 0 
 0 
 0 
 0 
 0 
 0 
 0 
 0 
 0 
 0 
 0 
 0 
 0 
 0 
 0 
 0 
 0 
SCALARS CONDID_3 FLOAT
LOOKUP_TABLE default
 0 
 0 
 0 
 0 
 0 
 0 
 1 
 0 
 0 
 0 
 0 
 0 
 0 
 0 
 0 
 0 
 0 
 0 
 0 
 0 
 0 
 0 
 0 
 0 
 0 
 0 
 0 
 0 
 0 
 0 
 0 
 0 
 0 
 0 
 0 
 0 
 0 
 0 
 0 
 0 
 0 
 0 
 0 
 1 
 1 
 1 
 1 
 1 
 1 
 0 
 0 
 0 
 0 
 0 
 0 
 0 
 0 
 0 
 0 
 0 
 0 
 0 
 0 
 0 
 0 
 0 
 0 
 0 
 0 
 0 
 0 
 0 
 0 
 0 
 0 
 0 
 0 
 0 
 0 
 0 
 0 
 0 
 0 
 0 
 0 
 0 
 0 
 0 
 0 
 0 
 0 
 0 
 0 
 0 
 0 
 0 
 0 
 0 
 0 
 0 
 0 
 0 
 0 
 0 
 0 
 0 
 0 
 0 
 0 
 0 
 0 
 0 
 0 
 0 
 0 
 0 
 0 
 0 
 0 
 0 
 0 
 0 
 0 
 0 
 0 
 0 
 0 
 0 
 0 
 0 
 0 
 0 
 0 
 0 
 0 
 0 
 0 
 0 
 0 
 0 
 0 
 0 
 0 
 0 
 0 
 0 
 0 
 0 
 0 
 0 
 0 
 0 
 0 
 0 
 0 
 0 
 0 
 0 
 0 
 0 
 0 
 0 
 0 
 0 
 0 
 0 
 0 
 0 
 0 
 0 
 0 
 0 
 0 
 0 
 0 
 0 
 0 
 0 
 0 
 0 
 0 
 0 
 0 
 0 
 0 
 0 
 0 
 0 
 0 
 0 
 0 
 0 
 0 
 0 
 0 
 0 
 0 
 0 
 0 
 0 
 0 
 0 
 0 
 0 
 0 
 0 
 0 
 0 
 0 
 0 
 0 
 0 
 0 
 0 
 0 
 0 
 0 
 0 
 0 
 0 
 0 
 0 
 0 
 0 
 0 
 0 
 0 
 0 
 0 
 0 
 0 
 0 
 0 
 0 
 0 
 0 
 0 
 0 
 0 
 0 
 0 
 0 
 0 
 0 
 0 
 0 
 0 
 0 
 0 
 0 
 0 
 0 
 0 
 0 
 0 
 0 
 0 
 0 
 0 
 0 
 0 
 0 
 0 
 0 
 0 
 0 
 0 
 0 
 1 
 1 
 1 
 0 
 0 
 0 
 1 
 1 
 1 
 0 
 0 
 0 
 1 
 1 
 1 
 0 
 0 
 0 
 1 
 1 
 1 
 0 
 0 
 0 
 1 
 1 
 1 
 0 
 0 
 0 
 1 
 1 
 1 
 0 
 0 
 0 
 0 
 0 
 0 
 0 
 0 
 0 
 0 
 0 
 0 
 0 
 0 
 0 
 0 
 0 
 0 
 0 
 0 
 0 
 0 
 0 
 0 
 0 
 0 
 0 
 0 
 0 
 0 
 0 
 0 
 0 
 0 
 0 
 0 
 0 
 0 
 0 
 0 
 0 
 0 
 0 
 0 
 0 
 0 
 0 
 0 
 0 
 0 
 0 
 0 
 0 
 0 
 0 
 0 
 0 
 0 
 0 
 0 
 0 
 0 
 0 
 0 
 0 
 0 
 0 
 0 
 0 
 0 
 0 
 0 
 0 
 0 
 0 
 0 
 0 
 0 
 0 
 0 
 0 
 0 
 0 
 0 
 0 
 0 
 0 
 0 
 0 
 0 
 0 
 0 
 0 
 0 
 0 
 0 
 0 
 0 
 0 
 0 
 0 
 0 
 0 
 0 
 0 
 0 
 0 
 0 
 0 
 0 
 0 
 0 
 0 
 0 
 0 
 0 
 0 
 0 
 0 
 0 
 0 
 0 
 0 
 0 
 0 
 0 
 0 
 0 
 0 
 0 
 0 
 0 
 0 
 0 
 0 
 0 
 0 
 0 
 0 
 0 
 0 
 0 
 0 
 0 
 0 
 0 
 0 
 0 
 0 
 0 
 0 
 0 
 0 
 0 
 0 
 0 
 0 
 0 
 0 
 0 
 0 
 0 
 0 
 0 
 0 
 0 
 0 
 0 
 0 
 0 
 0 
 0 
 0 
 0 
 0 
 0 
 0 
 0 
 0 
 0 
 0 
 0 
 0 
 0 
 0 
 0 
 0 
 0 
 0 
 0 
 0 
 0 
 0 
 0 
 0 
 0 
 0 
 0 
 0 
 0 
 0 
 0 
 0 
 0 
 0 
 0 
 0 
 0 
 0 
 0 
 0 
 0 
 0 
 0 
 0 
 0 
 0 
 0 
 0 
 0 
 0 
 0 
 0 
 0 
 0 
 0 
 0 
 0 
 0 
 0 
 0 
 0 
 0 
 0 
 0 
 0 
 0 
 0 
 0 
 0 
 0 
 0 
 0 
 0 
 0 
 0 
 0 
 0 
 0 
 0 
 0 
 0 
 0 
 0 
 0 
 0 
 0 
 0 
 0 
 0 
 0 
 0 
 0 
 0 
 0 
 0 
 0 
 0 
 0 
 0 
 0 
 0 
 0 
 0 
 0 
 0 
 0 
 0 
 0 
 0 
 0 
 0 
 0 
 0 
 0 
 0 
 0 
 0 
 0 
 0 
 0 
 0 
 0 
 0 
 0 
 0 
 0 
 0 
 0 
 0 
 0 
 0 
 0 
 0 
 0 
 0 
 0 
 0 
 0 
 0 
 0 
 0 
 0 
 0 
 0 
 0 
 0 
 0 
 0 
 0 
 0 
 0 
 0 
 0 
 0 
 0 
 0 
 0 
 0 
 0 
 0 
 0 
 0 
 0 
 0 
 0 
 0 
 0 
 0 
 0 
 0 
 0 
 0 
 0 
 0 
 0 
 0 
 0 
 0 
 0 
 0 
 0 
 0 
 0 
 0 
 0 
 0 
 0 
 0 
 0 
 0 
 0 
 0 
 0 
 0 
 0 
 0 
 0 
 0 
 0 
 0 
 0 
 0 
 0 
 0 
 0 
 0 
 0 
 0 
 0 
 0 
 0 
 0 
 0 
 0 
 0 
 0 
 0 
 0 
 0 
 0 
 0 
 0 
 0 
 0 
 0 
 0 
 0 
 0 
 0 
 0 
 0 
 0 
 0 
 0 
 0 
 0 
 0 
 0 
 0 
 0 
 0 
 0 
 0 
 0 
 0 
 0 
 0 
 0 
 0 
 0 
 0 
 0 
 0 
 0 
 0 
 0 
 0 
 0 
 0 
 0 
 0 
 0 
 0 
 0 
 0 
 0 
 0 
 0 
 0 
 0 
 0 
 0 
 0 
 0 
 0 
 0 
 0 
 0 
 0 
 0 
 0 
 0 
 0 
 0 
 0 
 0 
 0 
 0 
 0 
 0 
 0 
 0 
 0 
 0 
 0 
 0 
 0 
 0 
 0 
 0 
 0 
 0 
 0 
 0 
 0 
 0 
 0 
 0 
 0 
 0 
 0 
 0 
 0 
 0 
 0 
 0 
 0 
 0 
 0 
 0 
 0 
 0 
 0 
 0 
 0 
 0 
 0 
 0 
 0 
 0 
 0 
 0 
 0 
 0 
 0 
 0 
 0 
 0 
 0 
 0 
 0 
 0 
VECTORS displacement FLOAT
 0  0  0 
 -2.283562e-05  -7.252574e-05  0 
 -3.340528e-03  -1.205028e-03  0 
 -3.331550e-03  -3.055565e-03  0 
 -5.214403e-03  -3.784785e-03  0 
 -5.244075e-03  -6.567298e-03  0 
 -4.231124e-02  -7.603964e-02  0 
 0  0  0 
 -4.842459e-04  -8.200982e-05  0 
 0  0  0 
 -2.021629e-04  -1.473006e-04  0 
 0  0  0 
 1.020337e-05  -1.342411e-04  0 
 0  0  0 
 2.938527e-04  -1.642986e-04  0 
 0  0  0 
 5.845665e-04  -5.657504e-04  0 
 0  0  0 
 2.213793e-03  -8.959200e-04  0 
 -1.131910e-03  -9.265157e-04  0 
 -5.237117e-04  -8.147509e-04  0 
 6.962256e-05  -8.653898e-04  0 
 8.439434e-04  -1.157318e-03  0 
 1.430152e-03  -1.770071e-03  0 
 2.205460e-03  -2.097660e-03  0 
 -1.834978e-03  -2.794236e-03  0 
 -9.307694e-04  -2.223293e-03  0 
 1.398300e-04  -2.133148e-03  0 
 1.281640e-03  -2.302178e-03  0 
 2.036715e-03  -2.321827e-03  0 
 4.702524e-03  -2.456587e-03  0 
 -2.311531e-03  -3.699478e-03  0 
 -1.122022e-03  -3.847597e-03  0 
 1.810622e-04  -3.915408e-03  0 
 1.552990e-03  -4.107404e-03  0 
 2.497118e-03  -4.676538e-03  0 
 4.720615e-03  -4.897280e-03  0 
 -2.655134e-03  -6.345202e-03  0 
 -1.215191e-03  -5.832141e-03  0 
 1.955647e-04  -5.580454e-03  0 
 1.705714e-03  -5.634096e-03  0 
 2.749476e-03  -5.687288e-03  0 
 4.312157e-02  -5.905076e-03  0 
 -2.870066e-03  -7.822931e-03  0 
 -1.198364e-03  -7.870814e-03  0 
 8.874802e-05  -7.428467e-03  0 
 1.858674e-03  -7.448932e-03  0 
 2.772176e-03  -4.627398e-02  0 
 4.319366e-02  -4.627641e-02  0 
 -2.656515e-05  -5.488412e-05  0 
 -2.887458e-05  -8.079818e-05  0 
 -2.312041e-05  -7.715692e-05  0 
 -1.012348e-03  -1.172751e-03  0 
 -1.755450e-03  -1.724844e-03  0 
 -2.429541e-03  -1.766941e-03  0 
 -3.340006e-03  -1.662310e-03  0 
 -3.336699e-03  -2.121642e-03  0 
 -3.333850e-03  -2.586687e-03  0 
 -3.620070e-03  -3.676375e-03  0 
 -3.940014e-03  -4.043347e-03  0 
 -4.413660e-03  -4.130555e-03  0 
 -5.216327e-03  -4.470573e-03  0 
 -5.219099e-03  -5.156362e-03  0 
 -5.228956e-03  -5.853808e-03  0 
 -1.677227e-02  -1.891686e-02  0 
 -2.670276e-02  -3.043060e-02  0 
 -3.622849e-02  -4.875412e-02  0 
 -3.713807e-05  4.775584e-06  0 
 -1.070427e-04  -2.365290e-05  0 
 -2.330443e-04  -3.694834e-05  0 
 0  0  0 
 0  0  0 
 0  0  0 
 -3.006467e-05  -6.299707e-05  0 
 -5.544211e-05  -4.331321e-05  0 
 -1.387989e-04  -1.678466e-05  0 
 -3.800224e-05  -3.485533e-05  0 
 -7.280314e-05  -5.087645e-05  0 
 -1.196988e-04  -8.724637e-05  0 
 0  0  0 
 0  0  0 
 0  0  0 
 -6.199841e-04  -1.870604e-04  0 
 -5.984161e-04  -1.860577e-04  0 
 -4.468617e-04  -1.516635e-04  0 
 1.020844e-05  -9.230242e-06  0 
 2.009566e-05  -3.173697e-05  0 
 2.184945e-05  -6.627627e-05  0 
 0  0  0 
 0  0  0 
 0  0  0 
 -6.704942e-05  -1.176670e-04  0 
 -2.239348e-05  -9.290813e-05  0 
 2.412222e-06  -9.287821e-05  0 
 -2.072585e-07  -2.054845e-05  0 
 2.668681e-05  -7.597027e-05  0 
 1.086251e-04  -1.165651e-04  0 
 0  0  0 
 0  0  0 
 0  0  0 
 1.456794e-04  -1.735080e-04  0 
 2.806379e-04  -1.899860e-04  0 
 3.822990e-04  -1.974531e-04  0 
 1.023806e-04  -9.899166e-05  0 
 2.059511e-04  -1.616105e-04  0 
 3.448717e-04  -2.903773e-04  0 
 0  0  0 
 0  0  0 
 0  0  0 
 8.015840e-05  -1.522283e-04  0 
 8.243567e-05  -2.345891e-04  0 
 1.898031e-04  -3.739803e-04  0 
 6.301225e-04  -7.612688e-04  0 
 1.163167e-03  -1.125664e-03  0 
 1.638769e-03  -1.249717e-03  0 
 0  0  0 
 0  0  0 
 0  0  0 
 1.254684e-03  -7.684742e-04  0 
 1.621083e-03  -8.727155e-04  0 
 1.924319e-03  -8.964841e-04  0 
 -6.659698e-04  -2.952623e-04  0 
 -8.102734e-04  -4.276691e-04  0 
 -9.637716e-04  -6.755828e-04  0 
 -2.886968e-03  -1.203318e-03  0 
 -2.421258e-03  -1.176250e-03  0 
 -1.895922e-03  -1.092284e-03  0 
 -2.731071e-04  -2.938998e-04  0 
 -3.337374e-04  -4.633736e-04  0 
 -4.076209e-04  -5.988106e-04  0 
 -7.277510e-04  -8.331157e-04  0 
 -5.249693e-04  -7.229911e-04  0 
 -4.712618e-04  -7.159534e-04  0 
 -4.686273e-06  -3.327638e-04  0 
 -7.262020e-06  -5.011286e-04  0 
 2.072027e-05  -6.658572e-04  0 
 -4.960091e-04  -9.220886e-04  0 
 -3.121795e-04  -9.348429e-04  0 
 -1.010944e-04  -9.230725e-04  0 
 4.838589e-04  -3.343825e-04  0 
 5.915484e-04  -5.099079e-04  0 
 6.895086e-04  -7.489580e-04  0 
 1.424278e-04  -8.167443e-04  0 
 2.592764e-04  -8.295417e-04  0 
 4.619438e-04  -9.464094e-04  0 
 8.396774e-04  -1.114924e-03  0 
 1.009011e-03  -1.493118e-03  0 
 1.176579e-03  -1.714536e-03  0 
 1.242654e-03  -1.325176e-03  0 
 1.479588e-03  -1.518912e-03  0 
 1.573628e-03  -1.660762e-03  0 
 2.212997e-03  -1.190403e-03  0 
 2.209594e-03  -1.487802e-03  0 
 2.206137e-03  -1.790852e-03  0 
 1.363658e-03  -1.970162e-03  0 
 1.597140e-03  -2.072903e-03  0 
 1.894129e-03  -2.098435e-03  0 
 -1.339138e-03  -1.592463e-03  0 
 -1.483219e-03  -2.116485e-03  0 
 -1.627262e-03  -2.523574e-03  0 
 -2.862846e-03  -3.052277e-03  0 
 -2.401352e-03  -3.031140e-03  0 
 -1.998676e-03  -2.951538e-03  0 
 -6.860081e-04  -1.152523e-03  0 
 -7.703728e-04  -1.422034e-03  0 
 -8.425673e-04  -1.744523e-03  0 
 -1.839992e-03  -2.687264e-03  0 
 -1.644336e-03  -2.542263e-03  0 
 -1.351210e-03  -2.420168e-03  0 
 1.229116e-04  -1.170228e-03  0 
 1.605319e-04  -1.444140e-03  0 
 1.687151e-04  -1.738758e-03  0 
 -5.449179e-04  -2.017331e-03  0 
 -2.866728e-04  -1.942802e-03  0 
 -6.206000e-05  -1.995274e-03  0 
 9.568443e-04  -1.542291e-03  0 
 1.071558e-03  -1.867961e-03  0 
 1.153824e-03  -2.070251e-03  0 
 4.476457e-04  -2.279805e-03  0 
 7.841509e-04  -2.358999e-03  0 
 1.093027e-03  -2.365903e-03  0 
 1.614526e-03  -1.811777e-03  0 
 1.770120e-03  -1.856262e-03  0 
 1.882598e-03  -2.054742e-03  0 
 1.301104e-03  -2.238766e-03  0 
 1.440247e-03  -2.226738e-03  0 
 1.657474e-03  -2.253853e-03  0 
 2.674594e-03  -2.828993e-03  0 
 3.129621e-03  -3.091205e-03  0 
 3.737586e-03  -3.053113e-03  0 
 2.849494e-03  -2.396155e-03  0 
 3.497304e-03  -2.442774e-03  0 
 4.100911e-03  -2.454449e-03  0 
 -1.998149e-03  -2.918009e-03  0 
 -2.132582e-03  -3.108949e-03  0 
 -2.213322e-03  -3.377092e-03  0 
 -4.531378e-03  -3.784475e-03  0 
 -3.843695e-03  -3.779051e-03  0 
 -3.131159e-03  -3.752707e-03  0 
 -1.002432e-03  -2.731914e-03  0 
 -1.046045e-03  -3.096110e-03  0 
 -1.073209e-03  -3.426838e-03  0 
 -1.921027e-03  -3.661510e-03  0 
 -1.626092e-03  -3.662105e-03  0 
 -1.361206e-03  -3.716223e-03  0 
 9.718572e-05  -2.643553e-03  0 
 1.027689e-04  -3.067772e-03  0 
 1.229324e-04  -3.457375e-03  0 
 -7.980318e-04  -3.976073e-03  0 
 -4.513840e-04  -4.013811e-03  0 
 -1.038609e-04  -4.000177e-03  0 
 1.396118e-03  -2.716868e-03  0 
 1.468216e-03  -3.073781e-03  0 
 1.514837e-03  -3.504656e-03  0 
 4.574079e-04  -3.809286e-03  0 
 7.812872e-04  -3.798605e-03  0 
 1.135129e-03  -3.876367e-03  0 
 2.188519e-03  -3.021966e-03  0 
 2.286690e-03  -3.652062e-03  0 
 2.390497e-03  -4.173833e-03  0 
 1.914492e-03  -4.345044e-03  0 
 2.199084e-03  -4.456010e-03  0 
 2.425841e-03  -4.544854e-03  0 
 4.704570e-03  -3.058383e-03  0 
 4.707212e-03  -3.662834e-03  0 
 4.713204e-03  -4.278436e-03  0 
 2.937206e-03  -4.763958e-03  0 
 3.493023e-03  -4.851425e-03  0 
 4.101029e-03  -4.882652e-03  0 
 -2.408703e-03  -4.451068e-03  0 
 -2.476107e-03  -5.152993e-03  0 
 -2.548335e-03  -5.796380e-03  0 
 -4.530446e-03  -6.542468e-03  0 
 -3.833380e-03  -6.515786e-03  0 
 -3.176453e-03  -6.459008e-03  0 
 -1.169541e-03  -4.354306e-03  0 
 -1.192081e-03  -4.777261e-03  0 
 -1.209934e-03  -5.226168e-03  0 
 -2.381965e-03  -6.259324e-03  0 
 -2.047418e-03  -6.158888e-03  0 
 -1.648558e-03  -6.050831e-03  0 
 2.392765e-04  -4.366995e-03  0 
 2.543807e-04  -4.769523e-03  0 
 2.418547e-04  -5.161722e-03  0 
 -8.156965e-04  -5.613459e-03  0 
 -4.555443e-04  -5.534581e-03  0 
 -1.036892e-04  -5.529569e-03  0 
 1.593769e-03  -4.648061e-03  0 
 1.636340e-03  -5.004858e-03  0 
 1.668435e-03  -5.314461e-03  0 
 5.645230e-04  -5.635306e-03  0 
 9.659134e-04  -5.655067e-03  0 
 1.363831e-03  -5.661416e-03  0 
 2.627106e-03  -4.783982e-03  0 
 2.701166e-03  -5.013495e-03  0 
 2.738291e-03  -5.307968e-03  0 
 1.935476e-03  -5.588706e-03  0 
 2.187744e-03  -5.573279e-03  0 
 2.455895e-03  -5.604139e-03  0 
 1.250073e-02  -1.153621e-02  0 
 1.988391e-02  -1.413761e-02  0 
 2.973977e-02  -1.322871e-02  0 
 1.285550e-02  -5.776595e-03  0 
 2.296112e-02  -5.837043e-03  0 
 3.305023e-02  -5.874764e-03  0 
 -2.732439e-03  -6.647665e-03  0 
 -2.809149e-03  -7.000464e-03  0 
 -2.849178e-03  -7.399825e-03  0 
 -2.255764e-02  -6.586995e-02  0 
 -1.298862e-02  -5.043692e-02  0 
 -9.603908e-03  -3.315677e-02  0 
 -1.213433e-03  -6.475797e-03  0 
 -1.221556e-03  -6.961131e-03  0 
 -1.214236e-03  -7.407456e-03  0 
 -2.462506e-03  -7.800853e-03  0 
 -2.060978e-03  -7.797456e-03  0 
 -1.643891e-03  -7.830747e-03  0 
 1.532238e-04  -6.064627e-03  0 
 1.226424e-04  -6.516073e-03  0 
 1.018498e-04  -6.965892e-03  0 
 1.827167e-04  -2.222772e-02  0 
 -5.401274e-04  -2.553037e-02  0 
 -1.057195e-03  -2.110690e-02  0 
 1.769031e-03  -6.087595e-03  0 
 1.804593e-03  -6.524442e-03  0 
 1.832480e-03  -6.975012e-03  0 
 5.353039e-04  -7.404651e-03  0 
 9.692874e-04  -7.388422e-03  0 
 1.401683e-03  -7.405369e-03  0 
 2.749218e-03  -1.587783e-02  0 
 2.763641e-03  -2.602802e-02  0 
 2.769408e-03  -3.615093e-02  0 
 6.124584e-03  -2.648480e-02  0 
 6.063153e-03  -3.815249e-02  0 
 5.083133e-03  -4.377580e-02  0 
 4.314576e-02  -1.597777e-02  0 
 4.317019e-02  -2.606063e-02  0 
 4.318596e-02  -3.616348e-02  0 
 1.288059e-02  -4.627344e-02  0 
 2.298639e-02  -4.626899e-02  0 
 3.308811e-02  -4.627006e-02  0 
 -4.181355e-05  -7.673235e-05  0 
 -1.063712e-04  -1.030758e-04  0 
 -2.395805e-05  -3.931692e-05  0 
 -1.602286e-05  -5.686877e-05  0 
 -1.567047e-04  -1.110924e-04  0 
 -7.044475e-05  -6.397215e-05  0 
 -1.794968e-05  -4.039592e-05  0 
 -7.787583e-05  -1.088359e-04  0 
 -2.758117e-05  -8.417927e-05  0 
 -4.091716e-05  -8.463349e-05  0 
 -9.955104e-06  -2.476270e-05  0 
 -2.403687e-04  -1.385613e-04  0 
 -2.073454e-05  -1.474615e-05  0 
 -2.711212e-05  -8.316900e-05  0 
 -2.367011e-05  -7.425512e-05  0 
 -1.337892e-04  1.201418e-05  0 