# vtk DataFile Version 3.1
this is an vtk file created by FEMAC
ASCII
DATASET UNSTRUCTURED_GRID
POINTS 333 FLOAT
0.000000 0.000000 0.000000
1.000000 0.000000 0.000000
2.000000 0.000000 0.000000
3.000000 0.000000 0.000000
4.000000 0.000000 0.000000
5.000000 0.000000 0.000000
6.000000 0.000000 0.000000
7.000000 0.000000 0.000000
8.000000 0.000000 0.000000
0.000000 1.000000 0.000000
1.000000 1.000000 0.000000
0.000000 2.000000 0.000000
1.000000 2.000000 0.000000
0.000000 3.000000 0.000000
1.000000 3.000000 0.000000
2.000000 1.000000 0.000000
2.000000 2.000000 0.000000
2.000000 3.000000 0.000000
3.000000 1.000000 0.000000
3.000000 2.000000 0.000000
3.000000 3.000000 0.000000
4.000000 1.000000 0.000000
4.000000 2.000000 0.000000
4.000000 3.000000 0.000000
5.000000 1.000000 0.000000
5.000000 2.000000 0.000000
5.000000 3.000000 0.000000
6.000000 1.000000 0.000000
6.000000 2.000000 0.000000
6.000000 3.000000 0.000000
7.000000 1.000000 0.000000
7.000000 2.000000 0.000000
7.000000 3.000000 0.000000
8.000000 1.000000 0.000000
8.000000 2.000000 0.000000
8.000000 3.000000 0.000000
0.333333 0.000000 0.000000
0.666667 0.000000 0.000000
1.333333 0.000000 0.000000
1.666667 0.000000 0.000000
2.333333 0.000000 0.000000
2.666667 0.000000 0.000000
3.333333 0.000000 0.000000
3.666667 0.000000 0.000000
4.333333 0.000000 0.000000
4.666667 0.000000 0.000000
5.333333 0.000000 0.000000
5.666667 0.000000 0.000000
6.333333 0.000000 0.000000
6.666667 0.000000 0.000000
7.333333 0.000000 0.000000
7.666667 0.000000 0.000000
0.333333 1.000000 0.000000
0.666667 1.000000 0.000000
0.000000 0.333333 0.000000
0.000000 0.666667 0.000000
1.000000 0.333333 0.000000
1.000000 0.666667 0.000000
0.333333 2.000000 0.000000
0.666667 2.000000 0.000000
0.000000 1.333333 0.000000
0.000000 1.666667 0.000000
1.000000 1.333333 0.000000
1.000000 1.666667 0.000000
0.333333 3.000000 0.000000
0.666667 3.000000 0.000000
0.000000 2.333333 0.000000
0.000000 2.666667 0.000000
1.000000 2.333333 0.000000
1.000000 2.666667 0.000000
1.333333 1.000000 0.000000
1.666667 1.000000 0.000000
2.000000 0.333333 0.000000
2.000000 0.666667 0.000000
1.333333 2.000000 0.000000
1.666667 2.000000 0.000000
2.000000 1.333333 0.000000
2.000000 1.666667 0.000000
1.333333 3.000000 0.000000
1.666667 3.000000 0.000000
2.000000 2.333333 0.000000
2.000000 2.666667 0.000000
2.333333 1.000000 0.000000
2.666667 1.000000 0.000000
3.000000 0.333333 0.000000
3.000000 0.666667 0.000000
2.333333 2.000000 0.000000
2.666667 2.000000 0.000000
3.000000 1.333333 0.000000
3.000000 1.666667 0.000000
2.333333 3.000000 0.000000
2.666667 3.000000 0.000000
3.000000 2.333333 0.000000
3.000000 2.666667 0.000000
3.333333 1.000000 0.000000
3.666667 1.000000 0.000000
4.000000 0.333333 0.000000
4.000000 0.666667 0.000000
3.333333 2.000000 0.000000
3.666667 2.000000 0.000000
4.000000 1.333333 0.000000
4.000000 1.666667 0.000000
3.333333 3.000000 0.000000
3.666667 3.000000 0.000000
4.000000 2.333333 0.000000
4.000000 2.666667 0.000000
4.333333 1.000000 0.000000
4.666667 1.000000 0.000000
5.000000 0.333333 0.000000
5.000000 0.666667 0.000000
4.333333 2.000000 0.000000
4.666667 2.000000 0.000000
5.000000 1.333333 0.000000
5.000000 1.666667 0.000000
4.333333 3.000000 0.000000
4.666667 3.000000 0.000000
5.000000 2.333333 0.000000
5.000000 2.666667 0.000000
5.333333 1.000000 0.000000
5.666667 1.000000 0.000000
6.000000 0.333333 0.000000
6.000000 0.666667 0.000000
5.333333 2.000000 0.000000
5.666667 2.000000 0.000000
6.000000 1.333333 0.000000
6.000000 1.666667 0.000000
5.333333 3.000000 0.000000
5.666667 3.000000 0.000000
6.000000 2.333333 0.000000
6.000000 2.666667 0.000000
6.333333 1.000000 0.000000
6.666667 1.000000 0.000000
7.000000 0.333333 0.000000
7.000000 0.666667 0.000000
6.333333 2.000000 0.000000
6.666667 2.000000 0.000000
7.000000 1.333333 0.000000
7.000000 1.666667 0.000000
6.333333 3.000000 0.000000
6.666667 3.000000 0.000000
7.000000 2.333333 0.000000
7.000000 2.666667 0.000000
7.333333 1.000000 0.000000
7.666667 1.000000 0.000000
8.000000 0.333333 0.000000
8.000000 0.666667 0.000000
7.333333 2.000000 0.000000
7.666667 2.000000 0.000000
8.000000 1.333333 0.000000
8.000000 1.666667 0.000000
7.333333 3.000000 0.000000
7.666667 3.000000 0.000000
8.000000 2.333333 0.000000
8.000000 2.666667 0.000000
0.480477 0.680774 0.000000
0.362231 0.275821 0.000000
0.723785 0.353877 0.000000
0.205499 0.555406 0.000000
0.207486 0.777989 0.000000
0.811821 0.672442 0.000000
0.293653 1.601785 0.000000
0.586533 1.401885 0.000000
0.761942 1.235632 0.000000
0.673964 1.728155 0.000000
0.295077 1.249124 0.000000
0.810985 1.468884 0.000000
0.528710 1.177328 0.000000
0.156747 1.817113 0.000000
0.775322 2.206402 0.000000
0.488340 2.795578 0.000000
0.478822 2.249935 0.000000
0.696366 2.537083 0.000000
0.783178 2.799145 0.000000
0.209278 2.252241 0.000000
0.291353 2.524024 0.000000
0.222605 2.797254 0.000000
1.744961 0.484001 0.000000
1.764484 0.793046 0.000000
1.491231 0.678327 0.000000
1.210922 0.204661 0.000000
1.233777 0.471639 0.000000
1.207895 0.781270 0.000000
1.780848 0.196582 0.000000
1.494534 0.290744 0.000000
1.288510 1.513292 0.000000
1.504849 1.281931 0.000000
1.631052 1.631383 0.000000
1.246939 1.255102 0.000000
1.802254 1.320727 0.000000
1.321753 1.803732 0.000000
1.824430 1.824512 0.000000
1.265001 2.472948 0.000000
1.523802 2.285974 0.000000
1.518186 2.690581 0.000000
1.220626 2.759097 0.000000
1.784776 2.496093 0.000000
1.238185 2.214413 0.000000
1.793926 2.770668 0.000000
1.795049 2.223080 0.000000
2.204205 0.775322 0.000000
2.764844 0.483910 0.000000
2.215545 0.474242 0.000000
2.501210 0.682145 0.000000
2.497371 0.281947 0.000000
2.786544 0.766544 0.000000
2.785776 0.219838 0.000000
2.209250 0.217904 0.000000
2.472948 1.265001 0.000000
2.285974 1.523802 0.000000
2.690581 1.518186 0.000000
2.759097 1.220626 0.000000
2.496093 1.784776 0.000000
2.214413 1.238185 0.000000
2.770668 1.793926 0.000000
2.223080 1.795049 0.000000
2.248421 2.490274 0.000000
2.515789 2.340031 0.000000
2.466342 2.734179 0.000000
2.242347 2.785889 0.000000
2.783162 2.605840 0.000000
2.221251 2.227409 0.000000
2.793124 2.255841 0.000000
3.206402 0.775322 0.000000
3.795578 0.488340 0.000000
3.249935 0.478822 0.000000
3.537083 0.696366 0.000000
3.799145 0.783178 0.000000
3.252241 0.209278 0.000000
3.524024 0.291353 0.000000
3.797254 0.222605 0.000000
3.319226 1.519523 0.000000
3.724179 1.637769 0.000000
3.646123 1.276215 0.000000
3.444594 1.794501 0.000000
3.222011 1.792514 0.000000
3.327558 1.188179 0.000000
3.248421 2.490274 0.000000
3.515789 2.340031 0.000000
3.466342 2.734179 0.000000
3.242347 2.785889 0.000000
3.783162 2.605840 0.000000
3.221251 2.227409 0.000000
3.793124 2.255841 0.000000
4.793598 0.775322 0.000000
4.204422 0.488340 0.000000
4.750065 0.478822 0.000000
4.462917 0.696366 0.000000
4.200855 0.783178 0.000000
4.747759 0.209278 0.000000
4.475976 0.291353 0.000000
4.202746 0.222605 0.000000
4.421480 1.735450 0.000000
4.515642 1.353540 0.000000
4.818534 1.471368 0.000000
4.723211 1.710771 0.000000
4.782241 1.232308 0.000000
4.211743 1.514832 0.000000
4.193311 1.783390 0.000000
4.212144 1.240341 0.000000
4.603416 2.310190 0.000000
4.769946 2.658255 0.000000
4.391228 2.687481 0.000000
4.229401 2.325592 0.000000
4.181140 2.838537 0.000000
4.817521 2.160881 0.000000
5.795795 0.775322 0.000000
5.235156 0.483910 0.000000
5.784455 0.474242 0.000000
5.498790 0.682145 0.000000
5.502629 0.281947 0.000000
5.213456 0.766544 0.000000
5.790750 0.217904 0.000000
5.214224 0.219838 0.000000
5.472948 1.265001 0.000000
5.285974 1.523802 0.000000
5.690581 1.518186 0.000000
5.759097 1.220626 0.000000
5.496093 1.784776 0.000000
5.214413 1.238185 0.000000
5.770668 1.793926 0.000000
5.223080 1.795049 0.000000
5.509726 2.248421 0.000000
5.659969 2.515789 0.000000
5.265821 2.466342 0.000000
5.214111 2.242347 0.000000
5.772591 2.221251 0.000000
5.394160 2.783162 0.000000
5.744159 2.793124 0.000000
6.795795 0.775322 0.000000
6.235156 0.483910 0.000000
6.784455 0.474242 0.000000
6.498790 0.682145 0.000000
6.502629 0.281947 0.000000
6.213456 0.766544 0.000000
6.790750 0.217904 0.000000
6.214224 0.219838 0.000000
6.472948 1.265001 0.000000
6.285974 1.523802 0.000000
6.690581 1.518186 0.000000
6.759097 1.220626 0.000000
6.496093 1.784776 0.000000
6.214413 1.238185 0.000000
6.770668 1.793926 0.000000
6.223080 1.795049 0.000000
6.603416 2.310190 0.000000
6.769946 2.658255 0.000000
6.391228 2.687481 0.000000
6.229401 2.325592 0.000000
6.181140 2.838537 0.000000
6.817521 2.160881 0.000000
7.793598 0.775322 0.000000
7.204422 0.488340 0.000000
7.750065 0.478822 0.000000
7.462917 0.696366 0.000000
7.200855 0.783178 0.000000
7.747759 0.209278 0.000000
7.475976 0.291353 0.000000
7.202746 0.222605 0.000000
7.421480 1.735450 0.000000
7.515642 1.353540 0.000000
7.818534 1.471368 0.000000
7.723211 1.710771 0.000000
7.782241 1.232308 0.000000
7.211743 1.514832 0.000000
7.193311 1.783390 0.000000
7.212144 1.240341 0.000000
7.509726 2.248421 0.000000
7.659969 2.515789 0.000000
7.265821 2.466342 0.000000
7.214111 2.242347 0.000000
7.772591 2.221251 0.000000
7.394160 2.783162 0.000000
7.744159 2.793124 0.000000
CELLS 598 2392 
3 36 155   0
3 155  54   0
3 156  37   1
3 56 156   1
3 37 155  36
3 156 155  37
3 154 155 156
3 53  52 154
3 157  55  54
3 157 155 154
3 155 157  54
3 158  52   9
3 158  55 157
3 55 158   9
3 158 154  52
3 157 154 158
3 53 159  10
3 159  57  10
3 159  56  57
3 159 154 156
3 154 159  53
3 156  56 159
3 162  53  10
3 62 162  10
3 59 163  12
3 163  63  12
3 52 164   9
3 164  60   9
3 60 160  61
3 60 164 160
3 161 160 164
3 163 160 161
3 63 165  62
3 161 165 163
3 165  63 163
3 166  52  53
3 166 161 164
3 52 166 164
3 165 162  62
3 161 162 165
3 162 166  53
3 162 161 166
3 58 163  59
3 163  58 160
3 58 167 160
3 61 167  11
3 167  61 160
3 167  58  11
3 168  59  12
3 68 168  12
3 171 168  68
3 69 171  68
3 170  59 168
3 59 170  58
3 170 168 171
3 169  65  64
3 65 172  14
3 172  69  14
3 58 173  11
3 173  66  11
3 173  58 170
3 69 172 171
3 169 172  65
3 171 172 169
3 174  67  66
3 170 174 173
3 170 171 174
3 173 174  66
3 174 171 169
3 175  64  13
3 175  67 174
3 67 175  13
3 175 169  64
3 174 169 175
3 176  72  73
3 71 177  15
3 177  73  15
3 70 178  71
3 177 176  73
3 178 177  71
3 178 176 177
3 38 179   1
3 179  56   1
3 180  57  56
3 57 181  10
3 181  70  10
3 182  39   2
3 72 182   2
3 39 183  38
3 183 179  38
3 179 180  56
3 181  57 180
3 178 181 180
3 181 178  70
3 183  39 182
3 176 182  72
3 178 183 176
3 182 176 183
3 180 183 178
3 179 183 180
3 185  70  71
3 187  62  10
3 70 187  10
3 185 187  70
3 62 184  63
3 62 187 184
3 185 184 187
3 184 185 186
3 188  71  15
3 76 188  15
3 71 188 185
3 63 189  12
3 189  74  12
3 189  63 184
3 186 188  77
3 188 186 185
3 188  76  77
3 189 186  75
3 186 189 184
3 74 189  75
3 75 190  16
3 77 190 186
3 190  77  16
3 190  75 186
3 193  79  78
3 192 193 191
3 74  75 192
3 191  69  68
3 194  78  14
3 78 194 193
3 69 194  14
3 191 194  69
3 191 193 194
3 192 195 193
3 68 196 191
3 74 196  12
3 196  68  12
3 192 196  74
3 192 191 196
3 81 195  80
3 79 197  17
3 197  81  17
3 197  79 193
3 198  75  16
3 80 198  16
3 75 198 192
3 195 198  80
3 195 192 198
3 197 195  81
3 193 195 197
3 73 199  15
3 199  82  15
3 199 202  82
3 202  83  82
3 73 201 199
3 201  73  72
3 199 201 202
3 85 200  84
3 203  40  41
3 83 204  18
3 204  85  18
3 205  41   3
3 205  84 200
3 84 205   3
3 40 206   2
3 72 206 201
3 206  72   2
3 205 203  41
3 200 203 205
3 203 206  40
3 203 201 206
3 202 203 200
3 202 201 203
3 85 204 200
3 202 204  83
3 204 202 200
3 89 209  88
3 209 208 207
3 77  76 208
3 83 207  82
3 88 210  18
3 210  88 209
3 210  83  18
3 210 207  83
3 209 207 210
3 211 208 209
3 82 212  15
3 212  82 207
3 212  76  15
3 212 208  76
3 207 208 212
3 211  87  86
3 87 213  19
3 89 213 209
3 213  89  19
3 77 214  16
3 214  86  16
3 214  77 208
3 214 211  86
3 208 211 214
3 211 213  87
3 211 209 213
3 81  80 215
3 90 217  91
3 81 218  17
3 218  90  17
3 218  81 215
3 218 217  90
3 215 217 218
3 217 215 216
3 216  86  87
3 91 219  20
3 219  93  20
3 220  80  16
3 86 220  16
3 219  91 217
3 220  86 216
3 215 220 216
3 220 215  80
3 221  87  19
3 92 221  19
3 221 216  87
3 93 219  92
3 216 219 217
3 216 221 219
3 221  92 219
3 85 222  18
3 222  94  18
3 222 225  94
3 225  95  94
3 85 224 222
3 224  85  84
3 222 224 225
3 97 223  96
3 95 226  21
3 226  97  21
3 42 227   3
3 84 227 224
3 227  84   3
3 226  95 225
3 226 223  97
3 226 225 223
3 43 228  42
3 228 224 227
3 225 224 228
3 228 227  42
3 225 228 223
3 229  43   4
3 96 229   4
3 43 229 228
3 223 229  96
3 223 228 229
3 99 231  22
3 231 101  22
3 232  95  21
3 100 232  21
3 231 230 232
3 231 100 101
3 231 232 100
3 89  88 230
3 98 233  99
3 231 233 230
3 233 231  99
3 89 234  19
3 98 234 233
3 234  98  19
3 230 234  89
3 230 233 234
3 235  88  18
3 94 235  18
3 95 235  94
3 230 235 232
3 235 230  88
3 95 232 235
3 93  92 236
3 102 238 103
3 93 239  20
3 239 102  20
3 239  93 236
3 239 238 102
3 236 238 239
3 238 236 237
3 237  98  99
3 103 240  23
3 240 105  23
3 241  92  19
3 98 241  19
3 240 103 238
3 241  98 237
3 236 241 237
3 241 236  92
3 242  99  22
3 104 242  22
3 242 237  99
3 105 240 104
3 237 240 238
3 237 242 240
3 242 104 240
3 107 243  24
3 243 109  24
3 246 243 107
3 106 246 107
3 245 109 243
3 109 245 108
3 245 243 246
3 244  97  96
3 97 247  21
3 247 106  21
3 248  45   5
3 248 108 245
3 108 248   5
3 106 247 246
3 244 247  97
3 246 247 244
3 249  44  45
3 245 249 248
3 245 246 249
3 248 249  45
3 249 246 244
3 44 250   4
3 250  96   4
3 250  44 249
3 250 244  96
3 249 244 250
3 113 253 112
3 251 111 110
3 111 254  25
3 254 113  25
3 255 107  24
3 255 112 253
3 112 255  24
3 254 111 251
3 254 253 113
3 253 252 255
3 252 253 254
3 252 254 251
3 252 106 107
3 255 252 107
3 256 101 100
3 256 252 251
3 101 257  22
3 110 257 251
3 257 110  22
3 258 100  21
3 258 106 252
3 106 258  21
3 256 257 101
3 256 251 257
3 258 256 100
3 252 256 258
3 115 260  26
3 260 117  26
3 261 115 114
3 261 260 115
3 261 259 260
3 110 111 259
3 117 260 116
3 259 116 260
3 262 104  22
3 110 262  22
3 262 259 261
3 259 262 110
3 105 104 262
3 261 105 262
3 105 263  23
3 114 263 261
3 263 114  23
3 263 105 261
3 111 264 259
3 116 264  25
3 264 116 259
3 264 111  25
3 119 265  27
3 265 121  27
3 268 265 119
3 118 268 119
3 267 121 265
3 121 267 120
3 267 265 268
3 266 109 108
3 47 269  46
3 109 270  24
3 270 118  24
3 271  47   6
3 271 120 267
3 120 271   6
3 46 272   5
3 108 272 266
3 272 108   5
3 269 272  46
3 269 266 272
3 271 269  47
3 267 269 271
3 269 268 266
3 267 268 269
3 270 109 266
3 270 268 118
3 268 270 266
3 125 275 124
3 275 274 273
3 113 112 274
3 119 273 118
3 124 276  27
3 276 124 275
3 276 119  27
3 276 273 119
3 275 273 276
3 277 274 275
3 118 278  24
3 278 118 273
3 278 112  24
3 278 274 112
3 273 274 278
3 277 123 122
3 123 279  28
3 125 279 275
3 279 125  28
3 113 280  25
3 280 122  25
3 280 113 274
3 280 277 122
3 274 277 280
3 277 279 123
3 277 275 279
3 122 123 281
3 116 283 117
3 122 284  25
3 284 122 281
3 284 116  25
3 284 283 116
3 281 283 284
3 283 281 282
3 282 128 129
3 285 123  28
3 128 285  28
3 117 286  26
3 286 126  26
3 286 117 283
3 285 128 282
3 281 285 282
3 285 281 123
3 127 287  29
3 287 129  29
3 287 282 129
3 126 286 127
3 282 286 283
3 282 287 286
3 287 127 286
3 131 288  30
3 288 133  30
3 291 288 131
3 130 291 131
3 290 133 288
3 133 290 132
3 290 288 291
3 289 121 120
3 49 292  48
3 121 293  27
3 293 130  27
3 294  49   7
3 294 132 290
3 132 294   7
3 48 295   6
3 120 295 289
3 295 120   6
3 292 295  48
3 292 289 295
3 294 292  49
3 290 292 294
3 292 291 289
3 290 291 292
3 293 121 289
3 293 291 130
3 291 293 289
3 137 298 136
3 298 297 296
3 125 124 297
3 131 296 130
3 136 299  30
3 299 136 298
3 299 131  30
3 299 296 131
3 298 296 299
3 300 297 298
3 130 301  27
3 301 130 296
3 301 124  27
3 301 297 124
3 296 297 301
3 300 135 134
3 135 302  31
3 137 302 298
3 302 137  31
3 125 303  28
3 303 134  28
3 303 125 297
3 303 300 134
3 297 300 303
3 300 302 135
3 300 298 302
3 139 305  32
3 305 141  32
3 306 139 138
3 306 305 139
3 306 304 305
3 134 135 304
3 141 305 140
3 304 140 305
3 307 128  28
3 134 307  28
3 307 304 306
3 304 307 134
3 129 128 307
3 306 129 307
3 129 308  29
3 138 308 306
3 308 138  29
3 308 129 306
3 135 309 304
3 140 309  31
3 309 140 304
3 309 135  31
3 143 310  33
3 310 145  33
3 313 310 143
3 142 313 143
3 312 145 310
3 145 312 144
3 312 310 313
3 311 133 132
3 133 314  30
3 314 142  30
3 315  51   8
3 315 144 312
3 144 315   8
3 142 314 313
3 311 314 133
3 313 314 311
3 316  50  51
3 312 316 315
3 312 313 316
3 315 316  51
3 316 313 311
3 50 317   7
3 317 132   7
3 317  50 316
3 317 311 132
3 316 311 317
3 149 320 148
3 318 147 146
3 147 321  34
3 321 149  34
3 322 143  33
3 322 148 320
3 148 322  33
3 321 147 318
3 321 320 149
3 320 319 322
3 319 320 321
3 319 321 318
3 319 142 143
3 322 319 143
3 323 137 136
3 323 319 318
3 137 324  31
3 146 324 318
3 324 146  31
3 325 136  30
3 325 142 319
3 142 325  30
3 323 324 137
3 323 318 324
3 325 323 136
3 319 323 325
3 146 147 326
3 140 328 141
3 146 329  31
3 329 146 326
3 329 140  31
3 329 328 140
3 326 328 329
3 328 326 327
3 327 152 153
3 330 147  34
3 152 330  34
3 141 331  32
3 331 150  32
3 331 141 328
3 330 152 327
3 326 330 327
3 330 326 147
3 151 332  35
3 332 153  35
3 332 327 153
3 150 331 151
3 327 331 328
3 327 332 331
3 332 151 331
CELL_TYPES 598
5 5 5 5 5 5 5 5 5 5 5 5 5 5 5 5 5 5 5 5 5 5 5 5 5 5 5 5 5 5 5 5 5 5 5 5 5 5 5 5 5 5 5 5 5 5 5 5 5 5 5 5 5 5 5 5 5 5 5 5 5 5 5 5 5 5 5 5 5 5 5 5 5 5 5 5 5 5 5 5 5 5 5 5 5 5 5 5 5 5 5 5 5 5 5 5 5 5 5 5 5 5 5 5 5 5 5 5 5 5 5 5 5 5 5 5 5 5 5 5 5 5 5 5 5 5 5 5 5 5 5 5 5 5 5 5 5 5 5 5 5 5 5 5 5 5 5 5 5 5 5 5 5 5 5 5 5 5 5 5 5 5 5 5 5 5 5 5 5 5 5 5 5 5 5 5 5 5 5 5 5 5 5 5 5 5 5 5 5 5 5 5 5 5 5 5 5 5 5 5 5 5 5 5 5 5 5 5 5 5 5 5 5 5 5 5 5 5 5 5 5 5 5 5 5 5 5 5 5 5 5 5 5 5 5 5 5 5 5 5 5 5 5 5 5 5 5 5 5 5 5 5 5 5 5 5 5 5 5 5 5 5 5 5 5 5 5 5 5 5 5 5 5 5 5 5 5 5 5 5 5 5 5 5 5 5 5 5 5 5 5 5 5 5 5 5 5 5 5 5 5 5 5 5 5 5 5 5 5 5 5 5 5 5 5 5 5 5 5 5 5 5 5 5 5 5 5 5 5 5 5 5 5 5 5 5 5 5 5 5 5 5 5 5 5 5 5 5 5 5 5 5 5 5 5 5 5 5 5 5 5 5 5 5 5 5 5 5 5 5 5 5 5 5 5 5 5 5 5 5 5 5 5 5 5 5 5 5 5 5 5 5 5 5 5 5 5 5 5 5 5 5 5 5 5 5 5 5 5 5 5 5 5 5 5 5 5 5 5 5 5 5 5 5 5 5 5 5 5 5 5 5 5 5 5 5 5 5 5 5 5 5 5 5 5 5 5 5 5 5 5 5 5 5 5 5 5 5 5 5 5 5 5 5 5 5 5 5 5 5 5 5 5 5 5 5 5 5 5 5 5 5 5 5 5 5 5 5 5 5 5 5 5 5 5 5 5 5 5 5 5 5 5 5 5 5 5 5 5 5 5 5 5 5 5 5 5 5 5 5 5 5 5 5 5 5 5 5 5 5 5 5 5 5 5 5 5 5 5 5 5 5 5 5 5 5 5 5 5 5 5 5 5 5 5 5 5 5 5 5 5 5 5 5 5 5 5 5 5 5 5 5 5 5 5 5 5 5 5 5 5 5 5 5 5 5 5 5 5 5 5 5 5 5 5 5 5 5 
POINT_DATA 333
SCALARS CONDID_1 FLOAT
LOOKUP_TABLE default
 1 
 1 
 1 
 1 
 1 
 1 
 1 
 1 
 1 
 0 
 0 
 0 
 0 
 1 
 1 
 0 
 0 
 1 
 0 
 0 
 1 
 0 
 0 
 1 
 0 
 0 
 1 
 0 
 0 
 1 
 0 
 0 
 1 
 0 
 0 
 1 
 1 
 1 
 1 
 1 
 1 
 1 
 1 
 1 
 1 
 1 
 1 
 1 
 1 
 1 
 1 
 1 
 0 
 0 
 0 
 0 
 0 
 0 
 0 
 0 
 0 
 0 
 0 
 0 
 1 
 1 
 0 
 0 
 0 
 0 
 0 
 0 
 0 
 0 
 0 
 0 
 0 
 0 
 1 
 1 
 0 
 0 
 0 
 0 
 0 
 0 
 0 
 0 
 0 
 0 
 1 
 1 
 0 
 0 
 0 
 0 
 0 
 0 
 0 
 0 
 0 
 0 
 1 
 1 
 0 
 0 
 0 
 0 
 0 
 0 
 0 
 0 
 0 
 0 
 1 
 1 
 0 
 0 
 0 
 0 
 0 
 0 
 0 
 0 
 0 
 0 
 1 
 1 
 0 
 0 
 0 
 0 
 0 
 0 
 0 
 0 
 0 
 0 
 1 
 1 
 0 
 0 
 0 
 0 
 0 
 0 
 0 
 0 
 0 
 0 
 1 
 1 
 0 
 0 
 0 
 0 
 0 
 0 
 0 
 0 
 0 
 0 
 0 
 0 
 0 
 0 
 0 
 0 
 0 
 0 
 0 
 0 
 0 
 0 
 0 
 0 
 0 
 0 
 0 
 0 
 0 
 0 
 0 
 0 
 0 
 0 
 0 
 0 
 0 
 0 
 0 
 0 
 0 
 0 
 0 
 0 
 0 
 0 
 0 
 0 
 0 
 0 
 0 
 0 
 0 
 0 
 0 
 0 
 0 
 0 
 0 
 0 
 0 
 0 
 0 
 0 
 0 
 0 
 0 
 0 
 0 
 0 
 0 
 0 
 0 
 0 
 0 
 0 
 0 
 0 
 0 
 0 
 0 
 0 
 0 
 0 
 0 
 0 
 0 
 0 
 0 
 0 
 0 
 0 
 0 
 0 
 0 
 0 
 0 
 0 
 0 
 0 
 0 
 0 
 0 
 0 
 0 
 0 
 0 
 0 
 0 
 0 
 0 
 0 
 0 
 0 
 0 
 0 
 0 
 0 
 0 
 0 
 0 
 0 
 0 
 0 
 0 
 0 
 0 
 0 
 0 
 0 
 0 
 0 
 0 
 0 
 0 
 0 
 0 
 0 
 0 
 0 
 0 
 0 
 0 
 0 
 0 
 0 
 0 
 0 
 0 
 0 
 0 
 0 
 0 
 0 
 0 
 0 
 0 
 0 
 0 
 0 
 0 
 0 
 0 
 0 
 0 
 0 
 0 
 0 
 0 
 0 
 0 
 0 
 0 
 0 
 0 
 0 
 0 
 0 
 0 
 0 
 0 
SCALARS CONDID_2 FLOAT
LOOKUP_TABLE default
 1 
 0 
 0 
 0 
 0 
 0 
 0 
 0 
 0 
 1 
 0 
 1 
 0 
 1 
 0 
 0 
 0 
 0 
 0 
 0 
 0 
 0 
 0 
 0 
 0 
 0 
 0 
 0 
 0 
 0 
 0 
 0 
 0 
 0 
 0 
 0 
 0 
 0 
 0 
 0 
 0 
 0 
 0 
 0 
 0 
 0 
 0 
 0 
 0 
 0 
 0 
 0 
 0 
 0 
 1 
 1 
 0 
 0 
 0 
 0 
 1 
 1 
 0 
 0 
 0 
 0 
 1 
 1 
 0 
 0 
 0 
 0 
 0 
 0 
 0 
 0 
 0 
 0 
 0 
 0 
 0 
 0 
 0 
 0 
 0 
 0 
 0 
 0 
 0 
 0 
 0 
 0 
 0 
 0 
 0 
 0 
 0 
 0 
 0 
 0 
 0 
 0 
 0 
 0 
 0 
 0 
 0 
 0 
 0 
 0 
 0 
 0 
 0 
 0 
 0 
 0 
 0 
 0 
 0 
 0 
 0 
 0 
 0 
 0 
 0 
 0 
 0 
 0 
 0 
 0 
 0 
 0 
 0 
 0 
 0 
 0 
 0 
 0 
 0 
 0 
 0 
 0 
 0 
 0 
 0 
 0 
 0 
 0 
 0 
 0 
 0 
 0 
 0 
 0 
 0 
 0 
 0 
 0 
 0 
 0 
 0 
 0 
 0 
 0 
 0 
 0 
 0 
 0 
 0 
 0 
 0 
 0 
 0 
 0 
 0 
 0 
 0 
 0 
 0 
 0 
 0 
 0 
 0 
 0 
 0 
 0 
 0 
 0 
 0 
 0 
 0 
 0 
 0 
 0 
 0 
 0 
 0 
 0 
 0 
 0 
 0 
 0 
 0 
 0 
 0 
 0 
 0 
 0 
 0 
 0 
 0 
 0 
 0 
 0 
 0 
 0 
 0 
 0 
 0 
 0 
 0 
 0 
 0 
 0 
 0 
 0 
 0 
 0 
 0 
 0 
 0 
 0 
 0 
 0 
 0 
 0 
 0 
 0 
 0 
 0 
 0 
 0 
 0 
 0 
 0 
 0 
 0 
 0 
 0 
 0 
 0 
 0 
 0 
 0 
 0 
 0 
 0 
 0 
 0 
 0 
 0 
 0 
 0 
 0 
 0 
 0 
 0 
 0 
 0 
 0 
 0 
 0 
 0 
 0 
 0 
 0 
 0 
 0 
 0 
 0 
 0 
 0 
 0 
 0 
 0 
 0 
 0 
 0 
 0 
 0 
 0 
 0 
 0 
 0 
 0 
 0 
 0 
 0 
 0 
 0 
 0 
 0 
 0 
 0 
 0 
 0 
 0 
 0 
 0 
 0 
 0 
 0 
 0 
 0 
 0 
 0 
 0 
 0 
 0 
 0 
 0 
 0 
 0 
 0 
 0 
 0 
 0 
 0 
 0 
 0 
 0 
 0 
 0 
VECTORS displacement FLOAT
 0  0  0 
 0  0  0 
 0  0  0 
 0  0  0 
 0  0  0 
 0  0  0 
 0  0  0 
 0  0  0 
 0  0  0 
 8.419910e-03  9.227255e-04  0 
 5.146721e-03  -3.392101e-04  0 
 8.449378e-03  -9.531044e-04  0 
 5.157534e-03  3.149349e-04  0 
 0  0  0 
 0  0  0 
 2.956454e-03  -2.175259e-04  0 
 2.959800e-03  2.156976e-04  0 
 0  0  0 
 1.704837e-03  -1.233307e-04  0 
 1.706271e-03  1.265344e-04  0 
 0  0  0 
 9.876022e-04  -7.288170e-05  0 
 9.860004e-04  6.851495e-05  0 
 0  0  0 
 5.828765e-04  -3.903343e-05  0 
 5.825518e-04  3.875514e-05  0 
 0  0  0 
 3.637804e-04  -2.044513e-05  0 
 3.635704e-04  1.881581e-05  0 
 0  0  0 
 2.603538e-04  -7.236864e-06  0 
 2.604521e-04  6.982177e-06  0 
 0  0  0 
 2.281522e-04  -4.218499e-05  0 
 2.284488e-04  4.169520e-05  0 
 0  0  0 
 0  0  0 
 0  0  0 
 0  0  0 
 0  0  0 
 0  0  0 
 0  0  0 
 0  0  0 
 0  0  0 
 0  0  0 
 0  0  0 
 0  0  0 
 0  0  0 
 0  0  0 
 0  0  0 
 0  0  0 
 0  0  0 
 7.277799e-03  1.468398e-04  0 
 6.122981e-03  -2.577870e-04  0 
 4.466910e-03  1.132365e-03  0 
 6.821992e-03  1.376037e-03  0 
 2.061805e-03  -3.032921e-04  0 
 3.887252e-03  -3.935090e-04  0 
 7.336973e-03  -1.478279e-04  0 
 6.158283e-03  2.134820e-04  0 
 9.091545e-03  3.399802e-04  0 
 9.056698e-03  -2.908557e-04  0 
 5.792325e-03  -1.113968e-04  0 
 5.784492e-03  1.057889e-04  0 
 0  0  0 
 0  0  0 
 6.909824e-03  -1.435577e-03  0 
 4.533012e-03  -1.388930e-03  0 
 3.870371e-03  4.196560e-04  0 
 2.076708e-03  3.507102e-04  0 
 4.276378e-03  -3.027610e-04  0 
 3.566576e-03  -2.831638e-04  0 
 1.228989e-03  -2.127984e-04  0 
 2.219264e-03  -2.811797e-04  0 
 4.268700e-03  3.008157e-04  0 
 3.562388e-03  2.802168e-04  0 
 3.326585e-03  -6.966085e-05  0 
 3.319572e-03  8.312711e-05  0 
 0  0  0 
 0  0  0 
 2.222188e-03  2.771727e-04  0 
 1.225088e-03  2.101827e-04  0 
 2.448737e-03  -1.854914e-04  0 
 2.041823e-03  -1.472673e-04  0 
 7.114648e-04  -1.166580e-04  0 
 1.281165e-03  -1.550172e-04  0 
 2.448337e-03  1.880080e-04  0 
 2.044762e-03  1.508813e-04  0 
 1.905771e-03  -4.880396e-05  0 
 1.910059e-03  4.551386e-05  0 
 0  0  0 
 0  0  0 
 1.282244e-03  1.582199e-04  0 
 7.141833e-04  1.153339e-04  0 
 1.416072e-03  -1.020464e-04  0 
 1.185572e-03  -8.896962e-05  0 
 4.131393e-04  -6.879190e-05  0 
 7.433960e-04  -9.220564e-05  0 
 1.415145e-03  1.039822e-04  0 
 1.185389e-03  8.728736e-05  0 
 1.100257e-03  -2.112844e-05  0 
 1.110560e-03  2.833746e-05  0 
 0  0  0 
 0  0  0 
 7.444172e-04  8.406969e-05  0 
 4.220867e-04  6.660219e-05  0 
 8.220326e-04  -5.780163e-05  0 
 6.893812e-04  -4.775083e-05  0 
 2.439765e-04  -3.690799e-05  0 
 4.387622e-04  -4.887871e-05  0 
 8.289376e-04  6.311472e-05  0 
 6.968767e-04  4.852914e-05  0 
 6.518699e-04  -1.348229e-05  0 
 6.555564e-04  1.222777e-05  0 
 0  0  0 
 0  0  0 
 4.485635e-04  4.947805e-05  0 
 2.448928e-04  3.394095e-05  0 
 4.917866e-04  -3.225538e-05  0 
 4.207262e-04  -2.502735e-05  0 
 1.516590e-04  -1.934137e-05  0 
 2.730529e-04  -2.560038e-05  0 
 4.932978e-04  3.183415e-05  0 
 4.206856e-04  2.486369e-05  0 
 4.078300e-04  -7.503960e-06  0 
 4.088279e-04  7.355330e-06  0 
 0  0  0 
 0  0  0 
 2.757040e-04  2.288249e-05  0 
 1.545821e-04  2.006600e-05  0 
 3.172993e-04  -1.548506e-05  0 
 2.835257e-04  -1.006688e-05  0 
 1.034363e-04  -7.467986e-06  0 
 1.916268e-04  -9.075901e-06  0 
 3.189210e-04  1.632447e-05  0 
 2.848631e-04  9.924607e-06  0 
 2.931044e-04  -2.898485e-06  0 
 2.943267e-04  2.799126e-06  0 
 0  0  0 
 0  0  0 
 1.954013e-04  9.102207e-06  0 
 1.040640e-04  6.272738e-06  0 
 2.436814e-04  -7.164501e-06  0 
 2.346477e-04  -1.564373e-05  0 
 9.504556e-05  -4.799721e-05  0 
 1.680854e-04  -5.786535e-05  0 
 2.440556e-04  6.972644e-06  0 
 2.352847e-04  1.601072e-05  0 
 2.546252e-04  -1.583640e-05  0 
 2.549501e-04  1.660963e-05  0 
 0  0  0 
 0  0  0 
 1.702389e-04  5.703153e-05  0 
 9.686598e-05  4.852102e-05  0 
 5.299961e-03  -2.384038e-04  0 
 2.483316e-03  -2.488651e-04  0 
 2.508154e-03  -3.539663e-04  0 
 5.305368e-03  5.134984e-04  0 
 6.730143e-03  4.948810e-04  0 
 4.332725e-03  -4.223581e-04  0 
 8.262576e-03  -9.713970e-05  0 
 7.230625e-03  -4.326724e-05  0 
 6.413514e-03  -1.688328e-04  0 
 6.776234e-03  1.053834e-04  0 
 8.065360e-03  1.161429e-04  0 
 6.445394e-03  -2.206647e-05  0 
 7.097688e-03  -5.903381e-05  0 
 8.357063e-03  -3.907728e-04  0 
 5.025076e-03  3.594704e-04  0 
 1.654903e-03  2.300884e-04  0 
 5.718294e-03  1.318122e-04  0 
 3.372138e-03  4.227812e-04  0 
 1.391992e-03  2.482244e-04  0 
 6.668330e-03  -5.026581e-04  0 
 4.540286e-03  -7.325708e-05  0 
 2.022186e-03  2.631469e-05  0 
 1.950025e-03  -3.256721e-04  0 
 2.875371e-03  -3.147261e-04  0 
 2.989361e-03  -3.952884e-04  0 
 1.145253e-03  -2.306724e-04  0 
 2.509596e-03  -4.074480e-04  0 
 3.899231e-03  -3.973108e-04  0 
 8.435482e-04  -1.712380e-04  0 
 1.416710e-03  -2.855229e-04  0 
 4.988617e-03  9.763404e-06  0 
 4.336472e-03  -1.554847e-04  0 
 4.102322e-03  7.525685e-05  0 
 4.958606e-03  -1.745526e-04  0 
 3.699454e-03  -1.044499e-04  0 
 4.662964e-03  2.065900e-04  0 
 3.476128e-03  1.749281e-04  0 
 2.716073e-03  4.258256e-04  0 
 3.051993e-03  3.795250e-04  0 
 1.492854e-03  2.937972e-04  0 
 1.358656e-03  2.621779e-04  0 
 1.965872e-03  3.194226e-04  0 
 3.830447e-03  3.993937e-04  0 
 9.719420e-04  1.928283e-04  0 
 2.791975e-03  3.104922e-04  0 
 2.221123e-03  -2.498512e-04  0 
 1.113372e-03  -1.789354e-04  0 
 1.480778e-03  -2.436806e-04  0 
 1.722936e-03  -2.197644e-04  0 
 8.081990e-04  -1.590577e-04  0 
 1.596045e-03  -1.697137e-04  0 
 5.442096e-04  -1.042627e-04  0 
 7.310434e-04  -1.480108e-04  0 
 2.507788e-03  -9.013744e-05  0 
 2.859680e-03  1.132748e-05  0 
 2.283961e-03  7.908099e-06  0 
 2.118002e-03  -8.371620e-05  0 
 2.444322e-03  1.101996e-04  0 
 2.878539e-03  -1.184976e-04  0 
 2.095821e-03  8.690036e-05  0 
 2.835991e-03  1.321294e-04  0 
 1.539860e-03  2.401721e-04  0 
 1.671846e-03  2.253916e-04  0 
 7.609058e-04  1.507282e-04  0 
 7.035786e-04  1.432080e-04  0 
 9.265174e-04  1.704047e-04  0 
 2.195719e-03  2.498577e-04  0 
 1.562225e-03  1.707740e-04  0 
 1.281203e-03  -1.369734e-04  0 
 6.380464e-04  -1.027770e-04  0 
 8.473321e-04  -1.343696e-04  0 
 9.915549e-04  -1.233642e-04  0 
 9.339518e-04  -1.002051e-04  0 
 3.947380e-04  -7.868775e-05  0 
 4.746099e-04  -9.334329e-05  0 
 3.174580e-04  -6.173406e-05  0 
 1.614519e-03  6.469100e-06  0 
 1.289428e-03  2.824386e-05  0 
 1.319804e-03  -4.464696e-05  0 
 1.442884e-03  5.967959e-05  0 
 1.633280e-03  7.721710e-05  0 
 1.536698e-03  -7.242109e-05  0 
 8.931512e-04  1.351640e-04  0 
 9.686676e-04  1.283576e-04  0 
 4.436072e-04  8.554741e-05  0 
 4.096282e-04  8.130354e-05  0 
 5.429216e-04  9.739208e-05  0 
 1.269424e-03  1.411537e-04  0 
 9.053595e-04  9.731927e-05  0 
 5.453635e-04  -5.327094e-05  0 
 5.140850e-04  -8.071726e-05  0 
 3.781076e-04  -5.730152e-05  0 
 6.021901e-04  -7.173480e-05  0 
 7.521570e-04  -8.100416e-05  0 
 1.814607e-04  -3.326270e-05  0 
 2.853257e-04  -5.326823e-05  0 
 2.525155e-04  -4.927489e-05  0 
 8.715573e-04  3.313896e-05  0 
 8.422814e-04  -1.777103e-05  0 
 7.206366e-04  -2.304451e-06  0 
 7.462699e-04  1.909059e-05  0 
 7.100824e-04  -2.887893e-05  0 
 9.940886e-04  2.124771e-06  0 
 9.716344e-04  4.338219e-05  0 
 9.588742e-04  -3.263903e-05  0 
 5.589907e-04  6.810068e-05  0 
 2.804667e-04  4.624487e-05  0 
 3.142111e-04  5.747183e-05  0 
 6.658055e-04  8.051716e-05  0 
 1.843382e-04  4.176787e-05  0 
 5.703856e-04  5.547618e-05  0 
 3.339858e-04  -2.801198e-05  0 
 2.981293e-04  -4.291450e-05  0 
 2.256202e-04  -2.976993e-05  0 
 3.506585e-04  -3.806126e-05  0 
 1.640026e-04  -2.753470e-05  0 
 4.375223e-04  -4.393813e-05  0 
 1.120050e-04  -1.767645e-05  0 
 1.472948e-04  -2.637299e-05  0 
 5.080447e-04  -1.603173e-05  0 
 5.719505e-04  7.007655e-07  0 
 4.718284e-04  6.928268e-07  0 
 4.405510e-04  -1.403410e-05  0 
 4.962780e-04  1.771243e-05  0 
 5.721083e-04  -2.110074e-05  0 
 4.358312e-04  1.345226e-05  0 
 5.653634e-04  2.294034e-05  0 
 3.759345e-04  3.696396e-05  0 
 2.486125e-04  3.292475e-05  0 
 3.258292e-04  4.350952e-05  0 
 4.372373e-04  4.194303e-05  0 
 3.410524e-04  2.916301e-05  0 
 1.354967e-04  2.717236e-05  0 
 1.086925e-04  1.616444e-05  0 
 2.282308e-04  -1.056734e-05  0 
 1.893166e-04  -2.135272e-05  0 
 1.519930e-04  -1.220093e-05  0 
 2.294472e-04  -1.723643e-05  0 
 1.064761e-04  -1.300654e-05  0 
 2.777396e-04  -2.199617e-05  0 
 7.454347e-05  -7.702749e-06  0 
 9.319427e-05  -1.338359e-05  0 
 3.340013e-04  -6.949964e-06  0 
 3.672212e-04  7.648613e-07  0 
 3.207261e-04  4.008419e-07  0 