# vtk DataFile Version 3.1
this is an vtk file created by FEMAC
ASCII
DATASET UNSTRUCTURED_GRID
POINTS 102 FLOAT
0.000000 0.000000 0.000000
0.500000 0.000000 0.000000
1.000000 0.000000 0.000000
1.500000 0.000000 0.000000
2.000000 0.000000 0.000000
2.500000 0.000000 0.000000
3.000000 0.000000 0.000000
3.500000 0.000000 0.000000
4.000000 0.000000 0.000000
4.500000 0.000000 0.000000
5.000000 0.000000 0.000000
5.500000 0.000000 0.000000
6.000000 0.000000 0.000000
6.500000 0.000000 0.000000
7.000000 0.000000 0.000000
7.500000 0.000000 0.000000
8.000000 0.000000 0.000000
0.000000 0.200000 0.000000
0.500000 0.200000 0.000000
0.000000 0.400000 0.000000
0.500000 0.400000 0.000000
0.000000 0.600000 0.000000
0.500000 0.600000 0.000000
0.000000 0.800000 0.000000
0.500000 0.800000 0.000000
0.000000 1.000000 0.000000
0.500000 1.000000 0.000000
1.000000 0.200000 0.000000
1.000000 0.400000 0.000000
1.000000 0.600000 0.000000
1.000000 0.800000 0.000000
1.000000 1.000000 0.000000
1.500000 0.200000 0.000000
1.500000 0.400000 0.000000
1.500000 0.600000 0.000000
1.500000 0.800000 0.000000
1.500000 1.000000 0.000000
2.000000 0.200000 0.000000
2.000000 0.400000 0.000000
2.000000 0.600000 0.000000
2.000000 0.800000 0.000000
2.000000 1.000000 0.000000
2.500000 0.200000 0.000000
2.500000 0.400000 0.000000
2.500000 0.600000 0.000000
2.500000 0.800000 0.000000
2.500000 1.000000 0.000000
3.000000 0.200000 0.000000
3.000000 0.400000 0.000000
3.000000 0.600000 0.000000
3.000000 0.800000 0.000000
3.000000 1.000000 0.000000
3.500000 0.200000 0.000000
3.500000 0.400000 0.000000
3.500000 0.600000 0.000000
3.500000 0.800000 0.000000
3.500000 1.000000 0.000000
4.000000 0.200000 0.000000
4.000000 0.400000 0.000000
4.000000 0.600000 0.000000
4.000000 0.800000 0.000000
4.000000 1.000000 0.000000
4.500000 0.200000 0.000000
4.500000 0.400000 0.000000
4.500000 0.600000 0.000000
4.500000 0.800000 0.000000
4.500000 1.000000 0.000000
5.000000 0.200000 0.000000
5.000000 0.400000 0.000000
5.000000 0.600000 0.000000
5.000000 0.800000 0.000000
5.000000 1.000000 0.000000
5.500000 0.200000 0.000000
5.500000 0.400000 0.000000
5.500000 0.600000 0.000000
5.500000 0.800000 0.000000
5.500000 1.000000 0.000000
6.000000 0.200000 0.000000
6.000000 0.400000 0.000000
6.000000 0.600000 0.000000
6.000000 0.800000 0.000000
6.000000 1.000000 0.000000
6.500000 0.200000 0.000000
6.500000 0.400000 0.000000
6.500000 0.600000 0.000000
6.500000 0.800000 0.000000
6.500000 1.000000 0.000000
7.000000 0.200000 0.000000
7.000000 0.400000 0.000000
7.000000 0.600000 0.000000
7.000000 0.800000 0.000000
7.000000 1.000000 0.000000
7.500000 0.200000 0.000000
7.500000 0.400000 0.000000
7.500000 0.600000 0.000000
7.500000 0.800000 0.000000
7.500000 1.000000 0.000000
8.000000 0.200000 0.000000
8.000000 0.400000 0.000000
8.000000 0.600000 0.000000
8.000000 0.800000 0.000000
8.000000 1.000000 0.000000
CELLS 80 400 
4 0  1 18 17
4 17 18 20 19
4 19 20 22 21
4 21 22 24 23
4 23 24 26 25
4 1  2 27 18
4 18 27 28 20
4 20 28 29 22
4 22 29 30 24
4 24 30 31 26
4 2  3 32 27
4 27 32 33 28
4 28 33 34 29
4 29 34 35 30
4 30 35 36 31
4 3  4 37 32
4 32 37 38 33
4 33 38 39 34
4 34 39 40 35
4 35 40 41 36
4 4  5 42 37
4 37 42 43 38
4 38 43 44 39
4 39 44 45 40
4 40 45 46 41
4 5  6 47 42
4 42 47 48 43
4 43 48 49 44
4 44 49 50 45
4 45 50 51 46
4 6  7 52 47
4 47 52 53 48
4 48 53 54 49
4 49 54 55 50
4 50 55 56 51
4 7  8 57 52
4 52 57 58 53
4 53 58 59 54
4 54 59 60 55
4 55 60 61 56
4 8  9 62 57
4 57 62 63 58
4 58 63 64 59
4 59 64 65 60
4 60 65 66 61
4 9 10 67 62
4 62 67 68 63
4 63 68 69 64
4 64 69 70 65
4 65 70 71 66
4 10 11 72 67
4 67 72 73 68
4 68 73 74 69
4 69 74 75 70
4 70 75 76 71
4 11 12 77 72
4 72 77 78 73
4 73 78 79 74
4 74 79 80 75
4 75 80 81 76
4 12 13 82 77
4 77 82 83 78
4 78 83 84 79
4 79 84 85 80
4 80 85 86 81
4 13 14 87 82
4 82 87 88 83
4 83 88 89 84
4 84 89 90 85
4 85 90 91 86
4 14 15 92 87
4 87 92 93 88
4 88 93 94 89
4 89 94 95 90
4 90 95 96 91
4 15 16 97 92
4 92 97 98 93
4 93 98 99 94
4 94  99 100  95
4 95 100 101  96
CELL_TYPES 80
9 9 9 9 9 9 9 9 9 9 9 9 9 9 9 9 9 9 9 9 9 9 9 9 9 9 9 9 9 9 9 9 9 9 9 9 9 9 9 9 9 9 9 9 9 9 9 9 9 9 9 9 9 9 9 9 9 9 9 9 9 9 9 9 9 9 9 9 9 9 9 9 9 9 9 9 9 9 9 9 
POINT_DATA 102
SCALARS CONDID_1 FLOAT
LOOKUP_TABLE default
 1 
 0 
 0 
 0 
 0 
 0 
 0 
 0 
 0 
 0 
 0 
 0 
 0 
 0 
 0 
 0 
 0 
 0 
 0 
 0 
 0 
 0 
 0 
 0 
 0 
 0 
 0 
 0 
 0 
 0 
 0 
 0 
 0 
 0 
 0 
 0 
 0 
 0 
 0 
 0 
 0 
 0 
 0 
 0 
 0 
 0 
 0 
 0 
 0 
 0 
 0 
 0 
 0 
 0 
 0 
 0 
 0 
 0 
 0 
 0 
 0 
 0 
 0 
 0 
 0 
 0 
 0 
 0 
 0 
 0 
 0 
 0 
 0 
 0 
 0 
 0 
 0 
 0 
 0 
 0 
 0 
 0 
 0 
 0 
 0 
 0 
 0 
 0 
 0 
 0 
 0 
 0 
 0 
 0 
 0 
 0 
 0 
 0 
 0 
 0 
 0 
 0 
SCALARS CONDID_2 FLOAT
LOOKUP_TABLE default
 1 
 0 
 0 
 0 
 0 
 0 
 0 
 0 
 0 
 0 
 0 
 0 
 0 
 0 
 0 
 0 
 0 
 1 
 0 
 1 
 0 
 1 
 0 
 1 
 0 
 1 
 0 
 0 
 0 
 0 
 0 
 0 
 0 
 0 
 0 
 0 
 0 
 0 
 0 
 0 
 0 
 0 
 0 
 0 
 0 
 0 
 0 
 0 
 0 
 0 
 0 
 0 
 0 
 0 
 0 
 0 
 0 
 0 
 0 
 0 
 0 
 0 
 0 
 0 
 0 
 0 
 0 
 0 
 0 
 0 
 0 
 0 
 0 
 0 
 0 
 0 
 0 
 0 
 0 
 0 
 0 
 0 
 0 
 0 
 0 
 0 
 0 
 0 
 0 
 0 
 0 
 0 
 0 
 0 
 0 
 0 
 0 
 0 
 0 
 0 
 0 
 0 
SCALARS CONDID_3 FLOAT
LOOKUP_TABLE default
 1 
 1 
 1 
 1 
 1 
 1 
 1 
 1 
 1 
 1 
 1 
 1 
 1 
 1 
 1 
 1 
 1 
 1 
 1 
 1 
 1 
 1 
 1 
 1 
 1 
 1 
 1 
 1 
 1 
 1 
 1 
 1 
 1 
 1 
 1 
 1 
 1 
 1 
 1 
 1 
 1 
 1 
 1 
 1 
 1 
 1 
 1 
 1 
 1 
 1 
 1 
 1 
 1 
 1 
 1 
 1 
 1 
 1 
 1 
 1 
 1 
 1 
 1 
 1 
 1 
 1 
 1 
 1 
 1 
 1 
 1 
 1 
 1 
 1 
 1 
 1 
 1 
 1 
 1 
 1 
 1 
 1 
 1 
 1 
 1 
 1 
 1 
 1 
 1 
 1 
 1 
 1 
 1 
 1 
 1 
 1 
 1 
 1 
 1 
 1 
 1 
 1 
VECTORS displacement FLOAT
 0  0  0 
 5.585638e-07  3.325931e-06  0 
 3.570773e-07  5.225452e-06  0 
 3.898698e-07  7.122796e-06  0 
 2.562932e-07  8.616376e-06  0 
 1.871060e-07  9.609416e-06  0 
 8.788281e-08  1.016895e-05  0 
 5.660381e-08  1.042088e-05  0 
 8.609670e-09  1.047935e-05  0 
 9.876793e-09  1.044332e-05  0 
 -7.979554e-09  1.036905e-05  0 
 3.617055e-09  1.029733e-05  0 
 -2.863270e-09  1.023695e-05  0 
 5.190904e-09  1.019437e-05  0 
 4.475872e-10  1.015512e-05  0 
 -5.784194e-10  1.011119e-05  0 
 -7.849713e-09  1.004265e-05  0 
 0  2.222578e-08  0 
 -7.648155e-07  3.250834e-06  0 
 0  -2.050743e-05  0 
 1.991524e-07  -1.859462e-05  0 
 0  -2.049903e-05  0 
 -2.298097e-07  -1.858661e-05  0 
 0  1.358715e-05  0 
 2.488507e-07  1.527142e-05  0 
 0  1.362764e-05  0 
 -1.285550e-08  1.533645e-05  0 
 -2.992665e-07  5.159696e-06  0 
 -2.311761e-07  -1.925267e-05  0 
 1.661312e-07  -1.924653e-05  0 
 -3.388068e-07  1.401939e-05  0 
 3.469547e-07  1.409126e-05  0 
 -3.337904e-07  7.067432e-06  0 
 -1.162462e-07  -1.980291e-05  0 
 3.179696e-08  -1.979936e-05  0 
 -2.257831e-07  1.267942e-05  0 
 2.532392e-07  1.273602e-05  0 
 -2.308955e-07  8.555211e-06  0 
 -9.857589e-08  -2.014493e-05  0 
 6.949023e-09  -2.014323e-05  0 
 -1.708207e-07  1.152527e-05  0 
 2.379636e-07  1.158791e-05  0 
 -1.213014e-07  9.549257e-06  0 
 -6.128481e-08  -2.030037e-05  0 
 -3.007173e-08  -2.030001e-05  0 
 -1.200533e-07  1.069210e-05  0 
 1.446915e-07  1.075301e-05  0 
 -6.395903e-08  1.010864e-05  0 
 -4.468095e-08  -2.034090e-05  0 
 -4.011148e-08  -2.034130e-05  0 
 -4.709217e-08  1.017021e-05  0 
 1.088745e-07  1.023100e-05  0 
 -1.514280e-09  1.036001e-05  0 
 -3.174269e-08  -2.032353e-05  0 
 -4.537943e-08  -2.032427e-05  0 
 -2.168816e-08  9.904576e-06  0 
 4.280704e-08  9.965734e-06  0 
 1.079454e-08  1.041906e-05  0 
 -2.892425e-08  -2.029346e-05  0 
 -3.892653e-08  -2.029426e-05  0 
 1.760566e-08  9.812713e-06  0 
 3.175460e-08  9.873201e-06  0 
 3.290341e-08  1.038239e-05  0 
 -2.543507e-08  -2.026679e-05  0 
 -3.510528e-08  -2.026751e-05  0 
 1.781867e-08  9.825448e-06  0 
 -9.722212e-10  9.886538e-06  0 
 2.412448e-08  1.030878e-05  0 
 -2.609636e-08  -2.025502e-05  0 
 -2.717574e-08  -2.025559e-05  0 
 3.223287e-08  9.884479e-06  0 
 5.807950e-09  9.944902e-06  0 
 2.915738e-08  1.023640e-05  0 
 -2.440479e-08  -2.025302e-05  0 
 -2.419742e-08  -2.025343e-05  0 
 2.220887e-08  9.957520e-06  0 
 -7.294760e-09  1.001859e-05  0 
 1.841176e-08  1.017667e-05  0 
 -2.395923e-08  -2.026054e-05  0 
 -2.004472e-08  -2.026082e-05  0 
 2.581490e-08  1.002197e-05  0 
 3.554184e-09  1.008238e-05  0 
 2.010069e-08  1.013341e-05  0 
 -2.063401e-08  -2.026477e-05  0 
 -2.110935e-08  -2.026494e-05  0 
 1.609194e-08  1.007212e-05  0 
 -5.538264e-10  1.013320e-05  0 
 1.683555e-08  1.009483e-05  0 
 -1.565330e-08  -2.025740e-05  0 
 -2.356407e-08  -2.025749e-05  0 
 1.467226e-08  1.010059e-05  0 
 8.175577e-09  1.016096e-05  0 
 1.990290e-08  1.005027e-05  0 
 -6.152287e-09  -2.021632e-05  0 
 -3.259406e-08  -2.021631e-05  0 
 8.268133e-09  1.010678e-05  0 
 1.024010e-08  1.016780e-05  0 
 3.056608e-08  9.981936e-06  0 
 2.269750e-09  -2.012717e-05  0 
 -4.007054e-08  -2.012720e-05  0 
 -2.533726e-09  1.008286e-05  0 
 1.853175e-08  1.014353e-05  0 
CELL_DATA 80
SCALARS MATID_1 FLOAT
LOOKUP_TABLE default
 1 
 0 
 1 
 0 
 1 
 1 
 0 
 1 
 0 
 1 
 1 
 0 
 1 
 0 
 1 
 1 
 0 
 1 
 0 
 1 
 1 
 0 
 1 
 0 
 1 
 1 
 0 
 1 
 0 
 1 
 1 
 0 
 1 
 0 
 1 
 1 
 0 
 1 
 0 
 1 
 1 
 0 
 1 
 0 
 1 
 1 
 0 
 1 
 0 
 1 
 1 
 0 
 1 
 0 
 1 
 1 
 0 
 1 
 0 
 1 
 1 
 0 
 1 
 0 
 1 
 1 
 0 
 1 
 0 
 1 
 1 
 0 
 1 
 0 
 1 
 1 
 0 
 1 
 0 
 1 
SCALARS MATID_2 FLOAT
LOOKUP_TABLE default
 0 
 1 
 0 
 1 
 0 
 0 
 1 
 0 
 1 
 0 
 0 
 1 
 0 
 1 
 0 
 0 
 1 
 0 
 1 
 0 
 0 
 1 
 0 
 1 
 0 
 0 
 1 
 0 
 1 
 0 
 0 
 1 
 0 
 1 
 0 
 0 
 1 
 0 
 1 
 0 
 0 
 1 
 0 
 1 
 0 
 0 
 1 
 0 
 1 
 0 
 0 
 1 
 0 
 1 
 0 
 0 
 1 
 0 
 1 
 0 
 0 
 1 
 0 
 1 
 0 
 0 
 1 
 0 
 1 
 0 
 0 
 1 
 0 
 1 
 0 
 0 
 1 
 0 
 1 
 0 
SCALARS SUB_ID FLOAT
LOOKUP_TABLE default
 1 
 1 
 1 
 1 
 1 
 2 
 2 
 2 
 2 
 2 
 3 
 3 
 3 
 3 
 3 
 4 
 4 
 4 
 4 
 4 
 5 
 5 
 5 
 5 
 5 
 6 
 6 
 6 
 6 
 6 
 7 
 7 
 7 
 7 
 7 
 8 
 8 
 8 
 8 
 8 
 9 
 9 
 9 
 9 
 9 
 10 
 10 
 10 
 10 
 10 
 11 
 11 
 11 
 11 
 11 
 12 
 12 
 12 
 12 
 12 
 13 
 13 
 13 
 13 
 13 
 14 
 14 
 14 
 14 
 14 
 15 
 15 
 15 
 15 
 15 
 16 
 16 
 16 
 16 
 16 
VECTORS SubCenter_Diff FLOAT
 -3.750000e+00  0  0 
 -3.750000e+00  0  0 
 -3.750000e+00  0  0 
 -3.750000e+00  0  0 
 -3.750000e+00  0  0 
 -3.250000e+00  0  0 
 -3.250000e+00  0  0 
 -3.250000e+00  0  0 
 -3.250000e+00  0  0 
 -3.250000e+00  0  0 
 -2.750000e+00  0  0 
 -2.750000e+00  0  0 
 -2.750000e+00  0  0 
 -2.750000e+00  0  0 
 -2.750000e+00  0  0 
 -2.250000e+00  0  0 
 -2.250000e+00  0  0 
 -2.250000e+00  0  0 
 -2.250000e+00  0  0 
 -2.250000e+00  0  0 
 -1.750000e+00  0  0 
 -1.750000e+00  0  0 
 -1.750000e+00  0  0 
 -1.750000e+00  0  0 
 -1.750000e+00  0  0 
 -1.250000e+00  0  0 
 -1.250000e+00  0  0 
 -1.250000e+00  0  0 
 -1.250000e+00  0  0 
 -1.250000e+00  0  0 
 -7.500000e-01  0  0 
 -7.500000e-01  0  0 
 -7.500000e-01  0  0 
 -7.500000e-01  0  0 
 -7.500000e-01  0  0 
 -2.500000e-01  0  0 
 -2.500000e-01  0  0 
 -2.500000e-01  0  0 
 -2.500000e-01  0  0 
 -2.500000e-01  0  0 
 2.500000e-01  0  0 
 2.500000e-01  0  0 
 2.500000e-01  0  0 
 2.500000e-01  0  0 
 2.500000e-01  0  0 
 7.500000e-01  0  0 
 7.500000e-01  0  0 
 7.500000e-01  0  0 
 7.500000e-01  0  0 
 7.500000e-01  0  0 
 1.250000e+00  0  0 
 1.250000e+00  0  0 
 1.250000e+00  0  0 
 1.250000e+00  0  0 
 1.250000e+00  0  0 
 1.750000e+00  0  0 
 1.750000e+00  0  0 
 1.750000e+00  0  0 
 1.750000e+00  0  0 
 1.750000e+00  0  0 
 2.250000e+00  0  0 
 2.250000e+00  0  0 
 2.250000e+00  0  0 
 2.250000e+00  0  0 
 2.250000e+00  0  0 
 2.750000e+00  0  0 
 2.750000e+00  0  0 
 2.750000e+00  0  0 
 2.750000e+00  0  0 
 2.750000e+00  0  0 
 3.250000e+00  0  0 
 3.250000e+00  0  0 
 3.250000e+00  0  0 
 3.250000e+00  0  0 
 3.250000e+00  0  0 
 3.750000e+00  0  0 
 3.750000e+00  0  0 
 3.750000e+00  0  0 
 3.750000e+00  0  0 
 3.750000e+00  0  0 
