# vtk DataFile Version 3.1
this is an vtk file created by FEMAC
ASCII
DATASET UNSTRUCTURED_GRID
POINTS 12 FLOAT
4.500000 0.000000 0.000000
5.000000 0.000000 0.000000
4.500000 0.200000 0.000000
4.500000 0.400000 0.000000
4.500000 0.600000 0.000000
4.500000 0.800000 0.000000
4.500000 1.000000 0.000000
5.000000 0.200000 0.000000
5.000000 0.400000 0.000000
5.000000 0.600000 0.000000
5.000000 0.800000 0.000000
5.000000 1.000000 0.000000
CELLS 5 25 
4 0 1 7 2
4 2 7 8 3
4 3 8 9 4
4 4  9 10  5
4 5 10 11  6
CELL_TYPES 5
9 9 9 9 9 
POINT_DATA 12
VECTORS displacement_ITER1 FLOAT
 -5.000623e-03  -2.719689e-02  0 
 -5.376426e-03  -3.234205e-02  0 
 -3.077888e-03  -2.715397e-02  0 
 -1.015464e-03  -2.714307e-02  0 
 1.057695e-03  -2.714307e-02  0 
 3.120119e-03  -2.715397e-02  0 
 5.042854e-03  -2.719689e-02  0 
 -3.171959e-03  -3.238380e-02  0 
 -1.058047e-03  -3.239295e-02  0 
 1.100278e-03  -3.239295e-02  0 
 3.214190e-03  -3.238380e-02  0 
 5.418657e-03  -3.234205e-02  0 
VECTORS displacement_ITER2 FLOAT
 -4.802832e-03  -2.675421e-02  0 
 -5.084451e-03  -3.173272e-02  0 
 -2.905823e-03  -2.675235e-02  0 
 -9.493787e-04  -2.674853e-02  0 
 9.848598e-04  -2.674853e-02  0 
 2.941304e-03  -2.675235e-02  0 
 4.838313e-03  -2.675421e-02  0 
 -3.013458e-03  -3.172723e-02  0 
 -1.001218e-03  -3.173093e-02  0 
 1.036699e-03  -3.173093e-02  0 
 3.048939e-03  -3.172723e-02  0 
 5.119932e-03  -3.173272e-02  0 
VECTORS displacement_ITER3 FLOAT
 -4.800334e-03  -2.672245e-02  0 
 -5.080579e-03  -3.169239e-02  0 
 -2.905503e-03  -2.672447e-02  0 
 -9.521303e-04  -2.672064e-02  0 
 9.764187e-04  -2.672064e-02  0 
 2.929791e-03  -2.672447e-02  0 
 4.824622e-03  -2.672245e-02  0 
 -3.013360e-03  -3.169115e-02  0 
 -1.004747e-03  -3.169432e-02  0 
 1.029036e-03  -3.169432e-02  0 
 3.037648e-03  -3.169115e-02  0 
 5.104868e-03  -3.169239e-02  0 
VECTORS displacement_ITER4 FLOAT
 -4.799849e-03  -2.671847e-02  0 
 -5.079926e-03  -3.168607e-02  0 
 -2.905085e-03  -2.671897e-02  0 
 -9.516032e-04  -2.671532e-02  0 
 9.752818e-04  -2.671532e-02  0 
 2.928763e-03  -2.671897e-02  0 
 4.823527e-03  -2.671847e-02  0 
 -3.012991e-03  -3.168532e-02  0 
 -1.004875e-03  -3.168835e-02  0 
 1.028553e-03  -3.168835e-02  0 
 3.036669e-03  -3.168532e-02  0 
 5.103605e-03  -3.168607e-02  0 
VECTORS displacement_ITER5 FLOAT
 -4.800690e-03  -2.671758e-02  0 
 -5.080831e-03  -3.168556e-02  0 
 -2.905877e-03  -2.671828e-02  0 
 -9.523177e-04  -2.671461e-02  0 
 9.747198e-04  -2.671458e-02  0 
 2.928305e-03  -2.671823e-02  0 
 4.823204e-03  -2.671750e-02  0 
 -3.013776e-03  -3.168478e-02  0 
 -1.005612e-03  -3.168782e-02  0 
 1.028015e-03  -3.168785e-02  0 
 3.036207e-03  -3.168481e-02  0 
 5.103299e-03  -3.168562e-02  0 
VECTORS displacement_ITER6 FLOAT
 -4.801056e-03  -2.671757e-02  0 
 -5.081171e-03  -3.168564e-02  0 
 -2.906188e-03  -2.671828e-02  0 
 -9.526053e-04  -2.671462e-02  0 
 9.744431e-04  -2.671462e-02  0 
 2.928026e-03  -2.671828e-02  0 
 4.822891e-03  -2.671756e-02  0 
 -3.014089e-03  -3.168485e-02  0 
 -1.005900e-03  -3.168789e-02  0 
 1.027737e-03  -3.168789e-02  0 
 3.035927e-03  -3.168485e-02  0 
 5.103012e-03  -3.168564e-02  0 
VECTORS displacement_ITER7 FLOAT
 -4.800963e-03  -2.671756e-02  0 
 -5.081081e-03  -3.168564e-02  0 
 -2.906094e-03  -2.671828e-02  0 
 -9.525106e-04  -2.671462e-02  0 
 9.745395e-04  -2.671461e-02  0 
 2.928125e-03  -2.671828e-02  0 
 4.822993e-03  -2.671756e-02  0 
 -3.013995e-03  -3.168485e-02  0 
 -1.005805e-03  -3.168789e-02  0 
 1.027834e-03  -3.168789e-02  0 
 3.036026e-03  -3.168485e-02  0 
 5.103111e-03  -3.168564e-02  0 
VECTORS displacement_ITER8 FLOAT
 -4.800985e-03  -2.671756e-02  0 
 -5.081103e-03  -3.168564e-02  0 
 -2.906117e-03  -2.671828e-02  0 
 -9.525331e-04  -2.671462e-02  0 
 9.745167e-04  -2.671462e-02  0 
 2.928101e-03  -2.671828e-02  0 
 4.822970e-03  -2.671756e-02  0 
 -3.014018e-03  -3.168485e-02  0 
 -1.005828e-03  -3.168789e-02  0 
 1.027811e-03  -3.168789e-02  0 
 3.036002e-03  -3.168485e-02  0 
 5.103087e-03  -3.168564e-02  0 
VECTORS displacement_ITER9 FLOAT
 -4.800985e-03  -2.671756e-02  0 
 -5.081103e-03  -3.168564e-02  0 
 -2.906117e-03  -2.671828e-02  0 
 -9.525328e-04  -2.671462e-02  0 
 9.745170e-04  -2.671462e-02  0 
 2.928101e-03  -2.671828e-02  0 
 4.822970e-03  -2.671756e-02  0 
 -3.014018e-03  -3.168485e-02  0 
 -1.005827e-03  -3.168789e-02  0 
 1.027812e-03  -3.168789e-02  0 
 3.036002e-03  -3.168485e-02  0 
 5.103087e-03  -3.168564e-02  0 
VECTORS displacement_ITER10 FLOAT
 -1.545237e-01  1.658986e+00  0 
 -3.170205e-01  1.626934e+00  0 
 -2.057466e-01  1.582520e+00  0 
 -2.571197e-01  1.575916e+00  0 
 -2.742793e-01  1.576119e+00  0 
 -3.258509e-01  1.585274e+00  0 
 -3.681186e-01  1.662722e+00  0 
 -2.744474e-01  1.632842e+00  0 
 -2.774899e-01  1.641357e+00  0 
 -3.225892e-01  1.644537e+00  0 
 -3.283630e-01  1.635914e+00  0 
 -3.018964e-01  1.633551e+00  0 
VECTORS displacement_ITER11 FLOAT
 6.779324e+13  3.331802e+13  0 
 3.080706e+13  1.027112e+14  0 
 2.989505e+13  3.213320e+13  0 
 1.320980e+13  3.624542e+13  0 
 1.823903e+13  3.920487e+13  0 
 5.277434e+12  3.564732e+13  0 
 3.684446e+12  1.144095e+13  0 
 3.138745e+13  8.993663e+13  0 
 1.028261e+13  8.650831e+13  0 
 8.461079e+12  7.310948e+13  0 
 -5.307168e+12  7.310983e+13  0 
 -1.693099e+13  9.539024e+13  0 
VECTORS displacement_ITER12 FLOAT
 5.708194e+28  2.754722e+28  0 
 6.413419e+28  1.372515e+29  0 
 3.714446e+28  5.714097e+28  0 
 2.444725e+28  6.014429e+28  0 
 2.273300e+28  5.757595e+28  0 
 5.581523e+27  5.525583e+28  0 
 -2.086806e+28  9.825254e+27  0 
 3.780511e+28  9.974032e+28  0 
 2.209750e+28  9.850174e+28  0 
 1.734757e+28  9.820850e+28  0 
 2.199347e+27  1.004106e+29  0 
 -4.799974e+28  1.725706e+29  0 
VECTORS displacement_ITER13 FLOAT
 4.326396e+43  5.684214e+43  0 
 2.175206e+43  6.883875e+43  0 
 2.536587e+43  5.319069e+43  0 
 1.943805e+43  5.298226e+43  0 
 1.542790e+43  6.224643e+43  0 
 1.027757e+42  6.312611e+43  0 
 2.407129e+43  7.863391e+43  0 
 2.458537e+43  6.463712e+43  0 
 2.313300e+43  6.384347e+43  0 
 1.950069e+43  9.441467e+43  0 
 8.238645e+42  9.524551e+43  0 
 -2.821804e+43  1.025688e+44  0 
VECTORS displacement_ITER14 FLOAT
 -2.048268e+58  -5.238405e+57  0 
 1.430224e+57  -6.463437e+58  0 
 3.513877e+57  -9.309757e+57  0 
 -3.213322e+57  -1.534983e+58  0 
 1.818645e+58  -2.184893e+58  0 
 3.872036e+57  -2.750607e+58  0 
 -2.721309e+58  -1.389343e+58  0 
 6.845634e+57  -1.069306e+58  0 
 1.189237e+58  -4.649526e+57  0 
 6.661403e+57  -1.463737e+58  0 
 4.181473e+57  -7.734387e+57  0 
 8.722086e+56  4.596021e+57  0 
VECTORS displacement_ITER15 FLOAT
 -1.151969e+74  -1.462205e+74  0 
 -1.720351e+74  -2.943800e+74  0 
 -9.972677e+73  -1.861861e+74  0 
 -4.955052e+73  -1.857232e+74  0 
 -7.240298e+73  -2.120172e+74  0 
 -4.479301e+73  -1.947614e+74  0 
 -3.530565e+73  -2.793793e+74  0 
 -8.864903e+73  -2.547453e+74  0 
 -7.425353e+73  -2.509199e+74  0 
 -6.571191e+73  -2.421544e+74  0 
 -3.484778e+73  -2.606310e+74  0 
 -5.327184e+73  -1.796210e+74  0 
VECTORS displacement_ITER16 FLOAT
 -8.297746e+89  1.765447e+89  0 
 -5.230410e+89  -1.944703e+88  0 
 -4.089029e+89  7.619280e+88  0 
 -3.744135e+89  6.313541e+88  0 
 -2.544610e+89  1.434753e+89  0 
 -2.114935e+89  1.559341e+89  0 
 -2.644499e+89  6.125458e+88  0 
 -2.566761e+89  2.291164e+88  0 
 -1.709407e+89  2.342764e+88  0 
 -3.591747e+89  2.429338e+89  0 
 -3.773488e+89  2.482563e+89  0 
 -1.869191e+89  5.409708e+88  0 
VECTORS displacement_ITER17 FLOAT
 -8.297746e+89  1.765447e+89  0 
 -5.230410e+89  -1.944703e+88  0 
 -4.089029e+89  7.619280e+88  0 
 -3.744135e+89  6.313541e+88  0 
 -2.544610e+89  1.434753e+89  0 
 -2.114935e+89  1.559341e+89  0 
 -2.644499e+89  6.125458e+88  0 
 -2.566761e+89  2.291164e+88  0 
 -1.709407e+89  2.342764e+88  0 
 -3.591747e+89  2.429338e+89  0 
 -3.773488e+89  2.482563e+89  0 
 -1.869191e+89  5.409708e+88  0 
VECTORS displacement_ITER18 FLOAT
 -8.297746e+89  1.765447e+89  0 
 -5.230410e+89  -1.944703e+88  0 
 -4.089029e+89  7.619280e+88  0 
 -3.744135e+89  6.313541e+88  0 
 -2.544610e+89  1.434753e+89  0 
 -2.114935e+89  1.559341e+89  0 
 -2.644499e+89  6.125458e+88  0 
 -2.566761e+89  2.291164e+88  0 
 -1.709407e+89  2.342764e+88  0 
 -3.591747e+89  2.429338e+89  0 
 -3.773488e+89  2.482563e+89  0 
 -1.869191e+89  5.409708e+88  0 
VECTORS displacement_ITER19 FLOAT
 -8.297746e+89  1.765447e+89  0 
 -5.230410e+89  -1.944703e+88  0 
 -4.089029e+89  7.619280e+88  0 
 -3.744135e+89  6.313541e+88  0 
 -2.544610e+89  1.434753e+89  0 
 -2.114935e+89  1.559341e+89  0 
 -2.644499e+89  6.125458e+88  0 
 -2.566761e+89  2.291164e+88  0 
 -1.709407e+89  2.342764e+88  0 
 -3.591747e+89  2.429338e+89  0 
 -3.773488e+89  2.482563e+89  0 
 -1.869191e+89  5.409708e+88  0 
VECTORS displacement_ITER20 FLOAT
 -8.297746e+89  1.765447e+89  0 
 -5.230410e+89  -1.944703e+88  0 
 -4.089029e+89  7.619280e+88  0 
 -3.744135e+89  6.313541e+88  0 
 -2.544610e+89  1.434753e+89  0 
 -2.114935e+89  1.559341e+89  0 
 -2.644499e+89  6.125458e+88  0 
 -2.566761e+89  2.291164e+88  0 
 -1.709407e+89  2.342764e+88  0 
 -3.591747e+89  2.429338e+89  0 
 -3.773488e+89  2.482563e+89  0 
 -1.869191e+89  5.409708e+88  0 
VECTORS displacement_ITER21 FLOAT
 -8.297746e+89  1.765447e+89  0 
 -5.230410e+89  -1.944703e+88  0 
 -4.089029e+89  7.619280e+88  0 
 -3.744135e+89  6.313541e+88  0 
 -2.544610e+89  1.434753e+89  0 
 -2.114935e+89  1.559341e+89  0 
 -2.644499e+89  6.125458e+88  0 
 -2.566761e+89  2.291164e+88  0 
 -1.709407e+89  2.342764e+88  0 
 -3.591747e+89  2.429338e+89  0 
 -3.773488e+89  2.482563e+89  0 
 -1.869191e+89  5.409708e+88  0 
VECTORS displacement_ITER22 FLOAT
 -8.297746e+89  1.765447e+89  0 
 -5.230410e+89  -1.944703e+88  0 
 -4.089029e+89  7.619280e+88  0 
 -3.744135e+89  6.313541e+88  0 
 -2.544610e+89  1.434753e+89  0 
 -2.114935e+89  1.559341e+89  0 
 -2.644499e+89  6.125458e+88  0 
 -2.566761e+89  2.291164e+88  0 
 -1.709407e+89  2.342764e+88  0 
 -3.591747e+89  2.429338e+89  0 
 -3.773488e+89  2.482563e+89  0 
 -1.869191e+89  5.409708e+88  0 
VECTORS displacement_ITER23 FLOAT
 -8.297746e+89  1.765447e+89  0 
 -5.230410e+89  -1.944703e+88  0 
 -4.089029e+89  7.619280e+88  0 
 -3.744135e+89  6.313541e+88  0 
 -2.544610e+89  1.434753e+89  0 
 -2.114935e+89  1.559341e+89  0 
 -2.644499e+89  6.125458e+88  0 
 -2.566761e+89  2.291164e+88  0 
 -1.709407e+89  2.342764e+88  0 
 -3.591747e+89  2.429338e+89  0 
 -3.773488e+89  2.482563e+89  0 
 -1.869191e+89  5.409708e+88  0 
VECTORS displacement_ITER24 FLOAT
 -8.297746e+89  1.765447e+89  0 
 -5.230410e+89  -1.944703e+88  0 
 -4.089029e+89  7.619280e+88  0 
 -3.744135e+89  6.313541e+88  0 
 -2.544610e+89  1.434753e+89  0 
 -2.114935e+89  1.559341e+89  0 
 -2.644499e+89  6.125458e+88  0 
 -2.566761e+89  2.291164e+88  0 
 -1.709407e+89  2.342764e+88  0 
 -3.591747e+89  2.429338e+89  0 
 -3.773488e+89  2.482563e+89  0 
 -1.869191e+89  5.409708e+88  0 
VECTORS displacement_ITER25 FLOAT
 -8.297746e+89  1.765447e+89  0 
 -5.230410e+89  -1.944703e+88  0 
 -4.089029e+89  7.619280e+88  0 
 -3.744135e+89  6.313541e+88  0 
 -2.544610e+89  1.434753e+89  0 
 -2.114935e+89  1.559341e+89  0 
 -2.644499e+89  6.125458e+88  0 
 -2.566761e+89  2.291164e+88  0 
 -1.709407e+89  2.342764e+88  0 
 -3.591747e+89  2.429338e+89  0 
 -3.773488e+89  2.482563e+89  0 
 -1.869191e+89  5.409708e+88  0 
VECTORS displacement_ITER26 FLOAT
 -8.297746e+89  1.765447e+89  0 
 -5.230410e+89  -1.944703e+88  0 
 -4.089029e+89  7.619280e+88  0 
 -3.744135e+89  6.313541e+88  0 
 -2.544610e+89  1.434753e+89  0 
 -2.114935e+89  1.559341e+89  0 
 -2.644499e+89  6.125458e+88  0 
 -2.566761e+89  2.291164e+88  0 
 -1.709407e+89  2.342764e+88  0 
 -3.591747e+89  2.429338e+89  0 
 -3.773488e+89  2.482563e+89  0 
 -1.869191e+89  5.409708e+88  0 
VECTORS displacement_ITER27 FLOAT
 -8.297746e+89  1.765447e+89  0 
 -5.230410e+89  -1.944703e+88  0 
 -4.089029e+89  7.619280e+88  0 
 -3.744135e+89  6.313541e+88  0 
 -2.544610e+89  1.434753e+89  0 
 -2.114935e+89  1.559341e+89  0 
 -2.644499e+89  6.125458e+88  0 
 -2.566761e+89  2.291164e+88  0 
 -1.709407e+89  2.342764e+88  0 
 -3.591747e+89  2.429338e+89  0 
 -3.773488e+89  2.482563e+89  0 
 -1.869191e+89  5.409708e+88  0 
VECTORS displacement_ITER28 FLOAT
 -8.297746e+89  1.765447e+89  0 
 -5.230410e+89  -1.944703e+88  0 
 -4.089029e+89  7.619280e+88  0 
 -3.744135e+89  6.313541e+88  0 
 -2.544610e+89  1.434753e+89  0 
 -2.114935e+89  1.559341e+89  0 
 -2.644499e+89  6.125458e+88  0 
 -2.566761e+89  2.291164e+88  0 
 -1.709407e+89  2.342764e+88  0 
 -3.591747e+89  2.429338e+89  0 
 -3.773488e+89  2.482563e+89  0 
 -1.869191e+89  5.409708e+88  0 
VECTORS displacement_ITER29 FLOAT
 -8.297746e+89  1.765447e+89  0 
 -5.230410e+89  -1.944703e+88  0 
 -4.089029e+89  7.619280e+88  0 
 -3.744135e+89  6.313541e+88  0 
 -2.544610e+89  1.434753e+89  0 
 -2.114935e+89  1.559341e+89  0 
 -2.644499e+89  6.125458e+88  0 
 -2.566761e+89  2.291164e+88  0 
 -1.709407e+89  2.342764e+88  0 
 -3.591747e+89  2.429338e+89  0 
 -3.773488e+89  2.482563e+89  0 
 -1.869191e+89  5.409708e+88  0 
VECTORS displacement_ITER30 FLOAT
 -8.297746e+89  1.765447e+89  0 
 -5.230410e+89  -1.944703e+88  0 
 -4.089029e+89  7.619280e+88  0 
 -3.744135e+89  6.313541e+88  0 
 -2.544610e+89  1.434753e+89  0 
 -2.114935e+89  1.559341e+89  0 
 -2.644499e+89  6.125458e+88  0 
 -2.566761e+89  2.291164e+88  0 
 -1.709407e+89  2.342764e+88  0 
 -3.591747e+89  2.429338e+89  0 
 -3.773488e+89  2.482563e+89  0 
 -1.869191e+89  5.409708e+88  0 
VECTORS displacement_ITER31 FLOAT
 -8.297746e+89  1.765447e+89  0 
 -5.230410e+89  -1.944703e+88  0 
 -4.089029e+89  7.619280e+88  0 
 -3.744135e+89  6.313541e+88  0 
 -2.544610e+89  1.434753e+89  0 
 -2.114935e+89  1.559341e+89  0 
 -2.644499e+89  6.125458e+88  0 
 -2.566761e+89  2.291164e+88  0 
 -1.709407e+89  2.342764e+88  0 
 -3.591747e+89  2.429338e+89  0 
 -3.773488e+89  2.482563e+89  0 
 -1.869191e+89  5.409708e+88  0 
VECTORS displacement_ITER32 FLOAT
 -8.297746e+89  1.765447e+89  0 
 -5.230410e+89  -1.944703e+88  0 
 -4.089029e+89  7.619280e+88  0 
 -3.744135e+89  6.313541e+88  0 
 -2.544610e+89  1.434753e+89  0 
 -2.114935e+89  1.559341e+89  0 
 -2.644499e+89  6.125458e+88  0 
 -2.566761e+89  2.291164e+88  0 
 -1.709407e+89  2.342764e+88  0 
 -3.591747e+89  2.429338e+89  0 
 -3.773488e+89  2.482563e+89  0 
 -1.869191e+89  5.409708e+88  0 
VECTORS displacement_ITER33 FLOAT
 -8.297746e+89  1.765447e+89  0 
 -5.230410e+89  -1.944703e+88  0 
 -4.089029e+89  7.619280e+88  0 
 -3.744135e+89  6.313541e+88  0 
 -2.544610e+89  1.434753e+89  0 
 -2.114935e+89  1.559341e+89  0 
 -2.644499e+89  6.125458e+88  0 
 -2.566761e+89  2.291164e+88  0 
 -1.709407e+89  2.342764e+88  0 
 -3.591747e+89  2.429338e+89  0 
 -3.773488e+89  2.482563e+89  0 
 -1.869191e+89  5.409708e+88  0 
VECTORS displacement_ITER34 FLOAT
 -8.297746e+89  1.765447e+89  0 
 -5.230410e+89  -1.944703e+88  0 
 -4.089029e+89  7.619280e+88  0 
 -3.744135e+89  6.313541e+88  0 
 -2.544610e+89  1.434753e+89  0 
 -2.114935e+89  1.559341e+89  0 
 -2.644499e+89  6.125458e+88  0 
 -2.566761e+89  2.291164e+88  0 
 -1.709407e+89  2.342764e+88  0 
 -3.591747e+89  2.429338e+89  0 
 -3.773488e+89  2.482563e+89  0 
 -1.869191e+89  5.409708e+88  0 
VECTORS displacement_ITER35 FLOAT
 -8.297746e+89  1.765447e+89  0 
 -5.230410e+89  -1.944703e+88  0 
 -4.089029e+89  7.619280e+88  0 
 -3.744135e+89  6.313541e+88  0 
 -2.544610e+89  1.434753e+89  0 
 -2.114935e+89  1.559341e+89  0 
 -2.644499e+89  6.125458e+88  0 
 -2.566761e+89  2.291164e+88  0 
 -1.709407e+89  2.342764e+88  0 
 -3.591747e+89  2.429338e+89  0 
 -3.773488e+89  2.482563e+89  0 
 -1.869191e+89  5.409708e+88  0 
VECTORS displacement_ITER36 FLOAT
 -8.297746e+89  1.765447e+89  0 
 -5.230410e+89  -1.944703e+88  0 
 -4.089029e+89  7.619280e+88  0 
 -3.744135e+89  6.313541e+88  0 
 -2.544610e+89  1.434753e+89  0 
 -2.114935e+89  1.559341e+89  0 
 -2.644499e+89  6.125458e+88  0 
 -2.566761e+89  2.291164e+88  0 
 -1.709407e+89  2.342764e+88  0 
 -3.591747e+89  2.429338e+89  0 
 -3.773488e+89  2.482563e+89  0 
 -1.869191e+89  5.409708e+88  0 
VECTORS displacement_ITER37 FLOAT
 -8.297746e+89  1.765447e+89  0 
 -5.230410e+89  -1.944703e+88  0 
 -4.089029e+89  7.619280e+88  0 
 -3.744135e+89  6.313541e+88  0 
 -2.544610e+89  1.434753e+89  0 
 -2.114935e+89  1.559341e+89  0 
 -2.644499e+89  6.125458e+88  0 
 -2.566761e+89  2.291164e+88  0 
 -1.709407e+89  2.342764e+88  0 
 -3.591747e+89  2.429338e+89  0 
 -3.773488e+89  2.482563e+89  0 
 -1.869191e+89  5.409708e+88  0 
VECTORS displacement_ITER38 FLOAT
 -8.297746e+89  1.765447e+89  0 
 -5.230410e+89  -1.944703e+88  0 
 -4.089029e+89  7.619280e+88  0 
 -3.744135e+89  6.313541e+88  0 
 -2.544610e+89  1.434753e+89  0 
 -2.114935e+89  1.559341e+89  0 
 -2.644499e+89  6.125458e+88  0 
 -2.566761e+89  2.291164e+88  0 
 -1.709407e+89  2.342764e+88  0 
 -3.591747e+89  2.429338e+89  0 
 -3.773488e+89  2.482563e+89  0 
 -1.869191e+89  5.409708e+88  0 
VECTORS displacement_ITER39 FLOAT
 -8.297746e+89  1.765447e+89  0 
 -5.230410e+89  -1.944703e+88  0 
 -4.089029e+89  7.619280e+88  0 
 -3.744135e+89  6.313541e+88  0 
 -2.544610e+89  1.434753e+89  0 
 -2.114935e+89  1.559341e+89  0 
 -2.644499e+89  6.125458e+88  0 
 -2.566761e+89  2.291164e+88  0 
 -1.709407e+89  2.342764e+88  0 
 -3.591747e+89  2.429338e+89  0 
 -3.773488e+89  2.482563e+89  0 
 -1.869191e+89  5.409708e+88  0 
VECTORS displacement_ITER40 FLOAT
 -8.297746e+89  1.765447e+89  0 
 -5.230410e+89  -1.944703e+88  0 
 -4.089029e+89  7.619280e+88  0 
 -3.744135e+89  6.313541e+88  0 
 -2.544610e+89  1.434753e+89  0 
 -2.114935e+89  1.559341e+89  0 
 -2.644499e+89  6.125458e+88  0 
 -2.566761e+89  2.291164e+88  0 
 -1.709407e+89  2.342764e+88  0 
 -3.591747e+89  2.429338e+89  0 
 -3.773488e+89  2.482563e+89  0 
 -1.869191e+89  5.409708e+88  0 
VECTORS displacement_ITER41 FLOAT
 -8.297746e+89  1.765447e+89  0 
 -5.230410e+89  -1.944703e+88  0 
 -4.089029e+89  7.619280e+88  0 
 -3.744135e+89  6.313541e+88  0 
 -2.544610e+89  1.434753e+89  0 
 -2.114935e+89  1.559341e+89  0 
 -2.644499e+89  6.125458e+88  0 
 -2.566761e+89  2.291164e+88  0 
 -1.709407e+89  2.342764e+88  0 
 -3.591747e+89  2.429338e+89  0 
 -3.773488e+89  2.482563e+89  0 
 -1.869191e+89  5.409708e+88  0 
VECTORS displacement_ITER42 FLOAT
 -8.297746e+89  1.765447e+89  0 
 -5.230410e+89  -1.944703e+88  0 
 -4.089029e+89  7.619280e+88  0 
 -3.744135e+89  6.313541e+88  0 
 -2.544610e+89  1.434753e+89  0 
 -2.114935e+89  1.559341e+89  0 
 -2.644499e+89  6.125458e+88  0 
 -2.566761e+89  2.291164e+88  0 
 -1.709407e+89  2.342764e+88  0 
 -3.591747e+89  2.429338e+89  0 
 -3.773488e+89  2.482563e+89  0 
 -1.869191e+89  5.409708e+88  0 
VECTORS displacement_ITER43 FLOAT
 -8.297746e+89  1.765447e+89  0 
 -5.230410e+89  -1.944703e+88  0 
 -4.089029e+89  7.619280e+88  0 
 -3.744135e+89  6.313541e+88  0 
 -2.544610e+89  1.434753e+89  0 
 -2.114935e+89  1.559341e+89  0 
 -2.644499e+89  6.125458e+88  0 
 -2.566761e+89  2.291164e+88  0 
 -1.709407e+89  2.342764e+88  0 
 -3.591747e+89  2.429338e+89  0 
 -3.773488e+89  2.482563e+89  0 
 -1.869191e+89  5.409708e+88  0 
VECTORS displacement_ITER44 FLOAT
 -8.297746e+89  1.765447e+89  0 
 -5.230410e+89  -1.944703e+88  0 
 -4.089029e+89  7.619280e+88  0 
 -3.744135e+89  6.313541e+88  0 
 -2.544610e+89  1.434753e+89  0 
 -2.114935e+89  1.559341e+89  0 
 -2.644499e+89  6.125458e+88  0 
 -2.566761e+89  2.291164e+88  0 
 -1.709407e+89  2.342764e+88  0 
 -3.591747e+89  2.429338e+89  0 
 -3.773488e+89  2.482563e+89  0 
 -1.869191e+89  5.409708e+88  0 
VECTORS displacement_ITER45 FLOAT
 -8.297746e+89  1.765447e+89  0 
 -5.230410e+89  -1.944703e+88  0 
 -4.089029e+89  7.619280e+88  0 
 -3.744135e+89  6.313541e+88  0 
 -2.544610e+89  1.434753e+89  0 
 -2.114935e+89  1.559341e+89  0 
 -2.644499e+89  6.125458e+88  0 
 -2.566761e+89  2.291164e+88  0 
 -1.709407e+89  2.342764e+88  0 
 -3.591747e+89  2.429338e+89  0 
 -3.773488e+89  2.482563e+89  0 
 -1.869191e+89  5.409708e+88  0 
VECTORS displacement_ITER46 FLOAT
 -8.297746e+89  1.765447e+89  0 
 -5.230410e+89  -1.944703e+88  0 
 -4.089029e+89  7.619280e+88  0 
 -3.744135e+89  6.313541e+88  0 
 -2.544610e+89  1.434753e+89  0 
 -2.114935e+89  1.559341e+89  0 
 -2.644499e+89  6.125458e+88  0 
 -2.566761e+89  2.291164e+88  0 
 -1.709407e+89  2.342764e+88  0 
 -3.591747e+89  2.429338e+89  0 
 -3.773488e+89  2.482563e+89  0 
 -1.869191e+89  5.409708e+88  0 
VECTORS displacement_ITER47 FLOAT
 -8.297746e+89  1.765447e+89  0 
 -5.230410e+89  -1.944703e+88  0 
 -4.089029e+89  7.619280e+88  0 
 -3.744135e+89  6.313541e+88  0 
 -2.544610e+89  1.434753e+89  0 
 -2.114935e+89  1.559341e+89  0 
 -2.644499e+89  6.125458e+88  0 
 -2.566761e+89  2.291164e+88  0 
 -1.709407e+89  2.342764e+88  0 
 -3.591747e+89  2.429338e+89  0 
 -3.773488e+89  2.482563e+89  0 
 -1.869191e+89  5.409708e+88  0 
VECTORS displacement_ITER48 FLOAT
 -8.297746e+89  1.765447e+89  0 
 -5.230410e+89  -1.944703e+88  0 
 -4.089029e+89  7.619280e+88  0 
 -3.744135e+89  6.313541e+88  0 
 -2.544610e+89  1.434753e+89  0 
 -2.114935e+89  1.559341e+89  0 
 -2.644499e+89  6.125458e+88  0 
 -2.566761e+89  2.291164e+88  0 
 -1.709407e+89  2.342764e+88  0 
 -3.591747e+89  2.429338e+89  0 
 -3.773488e+89  2.482563e+89  0 
 -1.869191e+89  5.409708e+88  0 
VECTORS displacement_ITER49 FLOAT
 -8.297746e+89  1.765447e+89  0 
 -5.230410e+89  -1.944703e+88  0 
 -4.089029e+89  7.619280e+88  0 
 -3.744135e+89  6.313541e+88  0 
 -2.544610e+89  1.434753e+89  0 
 -2.114935e+89  1.559341e+89  0 
 -2.644499e+89  6.125458e+88  0 
 -2.566761e+89  2.291164e+88  0 
 -1.709407e+89  2.342764e+88  0 
 -3.591747e+89  2.429338e+89  0 
 -3.773488e+89  2.482563e+89  0 
 -1.869191e+89  5.409708e+88  0 
VECTORS displacement_ITER50 FLOAT
 -8.297746e+89  1.765447e+89  0 
 -5.230410e+89  -1.944703e+88  0 
 -4.089029e+89  7.619280e+88  0 
 -3.744135e+89  6.313541e+88  0 
 -2.544610e+89  1.434753e+89  0 
 -2.114935e+89  1.559341e+89  0 
 -2.644499e+89  6.125458e+88  0 
 -2.566761e+89  2.291164e+88  0 
 -1.709407e+89  2.342764e+88  0 
 -3.591747e+89  2.429338e+89  0 
 -3.773488e+89  2.482563e+89  0 
 -1.869191e+89  5.409708e+88  0 
VECTORS displacement_ITER51 FLOAT
 -8.297746e+89  1.765447e+89  0 
 -5.230410e+89  -1.944703e+88  0 
 -4.089029e+89  7.619280e+88  0 
 -3.744135e+89  6.313541e+88  0 
 -2.544610e+89  1.434753e+89  0 
 -2.114935e+89  1.559341e+89  0 
 -2.644499e+89  6.125458e+88  0 
 -2.566761e+89  2.291164e+88  0 
 -1.709407e+89  2.342764e+88  0 
 -3.591747e+89  2.429338e+89  0 
 -3.773488e+89  2.482563e+89  0 
 -1.869191e+89  5.409708e+88  0 
VECTORS displacement_ITER52 FLOAT
 -8.297746e+89  1.765447e+89  0 
 -5.230410e+89  -1.944703e+88  0 
 -4.089029e+89  7.619280e+88  0 
 -3.744135e+89  6.313541e+88  0 
 -2.544610e+89  1.434753e+89  0 
 -2.114935e+89  1.559341e+89  0 
 -2.644499e+89  6.125458e+88  0 
 -2.566761e+89  2.291164e+88  0 
 -1.709407e+89  2.342764e+88  0 
 -3.591747e+89  2.429338e+89  0 
 -3.773488e+89  2.482563e+89  0 
 -1.869191e+89  5.409708e+88  0 
VECTORS displacement_ITER53 FLOAT
 -8.297746e+89  1.765447e+89  0 
 -5.230410e+89  -1.944703e+88  0 
 -4.089029e+89  7.619280e+88  0 
 -3.744135e+89  6.313541e+88  0 
 -2.544610e+89  1.434753e+89  0 
 -2.114935e+89  1.559341e+89  0 
 -2.644499e+89  6.125458e+88  0 
 -2.566761e+89  2.291164e+88  0 
 -1.709407e+89  2.342764e+88  0 
 -3.591747e+89  2.429338e+89  0 
 -3.773488e+89  2.482563e+89  0 
 -1.869191e+89  5.409708e+88  0 
VECTORS displacement_ITER54 FLOAT
 -8.297746e+89  1.765447e+89  0 
 -5.230410e+89  -1.944703e+88  0 
 -4.089029e+89  7.619280e+88  0 
 -3.744135e+89  6.313541e+88  0 
 -2.544610e+89  1.434753e+89  0 
 -2.114935e+89  1.559341e+89  0 
 -2.644499e+89  6.125458e+88  0 
 -2.566761e+89  2.291164e+88  0 
 -1.709407e+89  2.342764e+88  0 
 -3.591747e+89  2.429338e+89  0 
 -3.773488e+89  2.482563e+89  0 
 -1.869191e+89  5.409708e+88  0 
VECTORS displacement_ITER55 FLOAT
 -8.297746e+89  1.765447e+89  0 
 -5.230410e+89  -1.944703e+88  0 
 -4.089029e+89  7.619280e+88  0 
 -3.744135e+89  6.313541e+88  0 
 -2.544610e+89  1.434753e+89  0 
 -2.114935e+89  1.559341e+89  0 
 -2.644499e+89  6.125458e+88  0 
 -2.566761e+89  2.291164e+88  0 
 -1.709407e+89  2.342764e+88  0 
 -3.591747e+89  2.429338e+89  0 
 -3.773488e+89  2.482563e+89  0 
 -1.869191e+89  5.409708e+88  0 
VECTORS displacement_ITER56 FLOAT
 -8.297746e+89  1.765447e+89  0 
 -5.230410e+89  -1.944703e+88  0 
 -4.089029e+89  7.619280e+88  0 
 -3.744135e+89  6.313541e+88  0 
 -2.544610e+89  1.434753e+89  0 
 -2.114935e+89  1.559341e+89  0 
 -2.644499e+89  6.125458e+88  0 
 -2.566761e+89  2.291164e+88  0 
 -1.709407e+89  2.342764e+88  0 
 -3.591747e+89  2.429338e+89  0 
 -3.773488e+89  2.482563e+89  0 
 -1.869191e+89  5.409708e+88  0 
VECTORS displacement_ITER57 FLOAT
 -8.297746e+89  1.765447e+89  0 
 -5.230410e+89  -1.944703e+88  0 
 -4.089029e+89  7.619280e+88  0 
 -3.744135e+89  6.313541e+88  0 
 -2.544610e+89  1.434753e+89  0 
 -2.114935e+89  1.559341e+89  0 
 -2.644499e+89  6.125458e+88  0 
 -2.566761e+89  2.291164e+88  0 
 -1.709407e+89  2.342764e+88  0 
 -3.591747e+89  2.429338e+89  0 
 -3.773488e+89  2.482563e+89  0 
 -1.869191e+89  5.409708e+88  0 
VECTORS displacement_ITER58 FLOAT
 -8.297746e+89  1.765447e+89  0 
 -5.230410e+89  -1.944703e+88  0 
 -4.089029e+89  7.619280e+88  0 
 -3.744135e+89  6.313541e+88  0 
 -2.544610e+89  1.434753e+89  0 
 -2.114935e+89  1.559341e+89  0 
 -2.644499e+89  6.125458e+88  0 
 -2.566761e+89  2.291164e+88  0 
 -1.709407e+89  2.342764e+88  0 
 -3.591747e+89  2.429338e+89  0 
 -3.773488e+89  2.482563e+89  0 
 -1.869191e+89  5.409708e+88  0 
VECTORS displacement_ITER59 FLOAT
 -8.297746e+89  1.765447e+89  0 
 -5.230410e+89  -1.944703e+88  0 
 -4.089029e+89  7.619280e+88  0 
 -3.744135e+89  6.313541e+88  0 
 -2.544610e+89  1.434753e+89  0 
 -2.114935e+89  1.559341e+89  0 
 -2.644499e+89  6.125458e+88  0 
 -2.566761e+89  2.291164e+88  0 
 -1.709407e+89  2.342764e+88  0 
 -3.591747e+89  2.429338e+89  0 
 -3.773488e+89  2.482563e+89  0 
 -1.869191e+89  5.409708e+88  0 
VECTORS displacement_ITER60 FLOAT
 -8.297746e+89  1.765447e+89  0 
 -5.230410e+89  -1.944703e+88  0 
 -4.089029e+89  7.619280e+88  0 
 -3.744135e+89  6.313541e+88  0 
 -2.544610e+89  1.434753e+89  0 
 -2.114935e+89  1.559341e+89  0 
 -2.644499e+89  6.125458e+88  0 
 -2.566761e+89  2.291164e+88  0 
 -1.709407e+89  2.342764e+88  0 
 -3.591747e+89  2.429338e+89  0 
 -3.773488e+89  2.482563e+89  0 
 -1.869191e+89  5.409708e+88  0 
VECTORS displacement_ITER61 FLOAT
 -8.297746e+89  1.765447e+89  0 
 -5.230410e+89  -1.944703e+88  0 
 -4.089029e+89  7.619280e+88  0 
 -3.744135e+89  6.313541e+88  0 
 -2.544610e+89  1.434753e+89  0 
 -2.114935e+89  1.559341e+89  0 
 -2.644499e+89  6.125458e+88  0 
 -2.566761e+89  2.291164e+88  0 
 -1.709407e+89  2.342764e+88  0 
 -3.591747e+89  2.429338e+89  0 
 -3.773488e+89  2.482563e+89  0 
 -1.869191e+89  5.409708e+88  0 
VECTORS displacement_ITER62 FLOAT
 -8.297746e+89  1.765447e+89  0 
 -5.230410e+89  -1.944703e+88  0 
 -4.089029e+89  7.619280e+88  0 
 -3.744135e+89  6.313541e+88  0 
 -2.544610e+89  1.434753e+89  0 
 -2.114935e+89  1.559341e+89  0 
 -2.644499e+89  6.125458e+88  0 
 -2.566761e+89  2.291164e+88  0 
 -1.709407e+89  2.342764e+88  0 
 -3.591747e+89  2.429338e+89  0 
 -3.773488e+89  2.482563e+89  0 
 -1.869191e+89  5.409708e+88  0 
VECTORS displacement_ITER63 FLOAT
 -8.297746e+89  1.765447e+89  0 
 -5.230410e+89  -1.944703e+88  0 
 -4.089029e+89  7.619280e+88  0 
 -3.744135e+89  6.313541e+88  0 
 -2.544610e+89  1.434753e+89  0 
 -2.114935e+89  1.559341e+89  0 
 -2.644499e+89  6.125458e+88  0 
 -2.566761e+89  2.291164e+88  0 
 -1.709407e+89  2.342764e+88  0 
 -3.591747e+89  2.429338e+89  0 
 -3.773488e+89  2.482563e+89  0 
 -1.869191e+89  5.409708e+88  0 
VECTORS displacement_ITER64 FLOAT
 -8.297746e+89  1.765447e+89  0 
 -5.230410e+89  -1.944703e+88  0 
 -4.089029e+89  7.619280e+88  0 
 -3.744135e+89  6.313541e+88  0 
 -2.544610e+89  1.434753e+89  0 
 -2.114935e+89  1.559341e+89  0 
 -2.644499e+89  6.125458e+88  0 
 -2.566761e+89  2.291164e+88  0 
 -1.709407e+89  2.342764e+88  0 
 -3.591747e+89  2.429338e+89  0 
 -3.773488e+89  2.482563e+89  0 
 -1.869191e+89  5.409708e+88  0 
VECTORS displacement_ITER65 FLOAT
 -8.297746e+89  1.765447e+89  0 
 -5.230410e+89  -1.944703e+88  0 
 -4.089029e+89  7.619280e+88  0 
 -3.744135e+89  6.313541e+88  0 
 -2.544610e+89  1.434753e+89  0 
 -2.114935e+89  1.559341e+89  0 
 -2.644499e+89  6.125458e+88  0 
 -2.566761e+89  2.291164e+88  0 
 -1.709407e+89  2.342764e+88  0 
 -3.591747e+89  2.429338e+89  0 
 -3.773488e+89  2.482563e+89  0 
 -1.869191e+89  5.409708e+88  0 
VECTORS displacement_ITER66 FLOAT
 -8.297746e+89  1.765447e+89  0 
 -5.230410e+89  -1.944703e+88  0 
 -4.089029e+89  7.619280e+88  0 
 -3.744135e+89  6.313541e+88  0 
 -2.544610e+89  1.434753e+89  0 
 -2.114935e+89  1.559341e+89  0 
 -2.644499e+89  6.125458e+88  0 
 -2.566761e+89  2.291164e+88  0 
 -1.709407e+89  2.342764e+88  0 
 -3.591747e+89  2.429338e+89  0 
 -3.773488e+89  2.482563e+89  0 
 -1.869191e+89  5.409708e+88  0 
VECTORS displacement_ITER67 FLOAT
 -8.297746e+89  1.765447e+89  0 
 -5.230410e+89  -1.944703e+88  0 
 -4.089029e+89  7.619280e+88  0 
 -3.744135e+89  6.313541e+88  0 
 -2.544610e+89  1.434753e+89  0 
 -2.114935e+89  1.559341e+89  0 
 -2.644499e+89  6.125458e+88  0 
 -2.566761e+89  2.291164e+88  0 
 -1.709407e+89  2.342764e+88  0 
 -3.591747e+89  2.429338e+89  0 
 -3.773488e+89  2.482563e+89  0 
 -1.869191e+89  5.409708e+88  0 
VECTORS displacement_ITER68 FLOAT
 -8.297746e+89  1.765447e+89  0 
 -5.230410e+89  -1.944703e+88  0 
 -4.089029e+89  7.619280e+88  0 
 -3.744135e+89  6.313541e+88  0 
 -2.544610e+89  1.434753e+89  0 
 -2.114935e+89  1.559341e+89  0 
 -2.644499e+89  6.125458e+88  0 
 -2.566761e+89  2.291164e+88  0 
 -1.709407e+89  2.342764e+88  0 
 -3.591747e+89  2.429338e+89  0 
 -3.773488e+89  2.482563e+89  0 
 -1.869191e+89  5.409708e+88  0 
VECTORS displacement_ITER69 FLOAT
 -8.297746e+89  1.765447e+89  0 
 -5.230410e+89  -1.944703e+88  0 
 -4.089029e+89  7.619280e+88  0 