# vtk DataFile Version 3.1
this is an vtk file created by FEMAC
ASCII
DATASET UNSTRUCTURED_GRID
POINTS 12 FLOAT
5.500000 0.000000 0.000000
6.000000 0.000000 0.000000
5.500000 0.200000 0.000000
5.500000 0.400000 0.000000
5.500000 0.600000 0.000000
5.500000 0.800000 0.000000
5.500000 1.000000 0.000000
6.000000 0.200000 0.000000
6.000000 0.400000 0.000000
6.000000 0.600000 0.000000
6.000000 0.800000 0.000000
6.000000 1.000000 0.000000
CELLS 5 25 
4 0 1 7 2
4 2 7 8 3
4 3 8 9 4
4 4  9 10  5
4 5 10 11  6
CELL_TYPES 5
9 9 9 9 9 
POINT_DATA 12
VECTORS displacement_ITER1 FLOAT
 -2.635209e-03  -2.013438e-02  0 
 -2.675719e-03  -2.283311e-02  0 
 -1.564410e-03  -2.012945e-02  0 
 -5.255174e-04  -2.012658e-02  0 
 5.441985e-04  -2.012660e-02  0 
 1.583152e-03  -2.012947e-02  0 
 2.653923e-03  -2.013443e-02  0 
 -1.591317e-03  -2.282987e-02  0 
 -5.324132e-04  -2.282785e-02  0 
 5.511427e-04  -2.282788e-02  0 
 1.610062e-03  -2.282985e-02  0 
 2.694448e-03  -2.283312e-02  0 
VECTORS displacement_ITER2 FLOAT
 -2.635127e-03  -2.013447e-02  0 
 -2.675648e-03  -2.283309e-02  0 
 -1.564374e-03  -2.012950e-02  0 
 -5.254729e-04  -2.012666e-02  0 
 5.442152e-04  -2.012666e-02  0 
 1.583128e-03  -2.012950e-02  0 
 2.653878e-03  -2.013447e-02  0 
 -1.591277e-03  -2.282985e-02  0 
 -5.323839e-04  -2.282786e-02  0 
 5.511303e-04  -2.282786e-02  0 
 1.610030e-03  -2.282985e-02  0 
 2.694399e-03  -2.283309e-02  0 
VECTORS displacement_ITER3 FLOAT
 -2.635121e-03  -2.013445e-02  0 
 -2.675643e-03  -2.283307e-02  0 
 -1.564373e-03  -2.012949e-02  0 
 -5.254681e-04  -2.012665e-02  0 
 5.442173e-04  -2.012665e-02  0 
 1.583123e-03  -2.012949e-02  0 
 2.653871e-03  -2.013445e-02  0 
 -1.591274e-03  -2.282983e-02  0 
 -5.323807e-04  -2.282784e-02  0 
 5.511305e-04  -2.282784e-02  0 
 1.610024e-03  -2.282983e-02  0 
 2.694392e-03  -2.283307e-02  0 
VECTORS displacement_ITER4 FLOAT
 -2.635120e-03  -2.013445e-02  0 
 -2.675642e-03  -2.283306e-02  0 
 -1.564373e-03  -2.012949e-02  0 
 -5.254679e-04  -2.012665e-02  0 
 5.442173e-04  -2.012665e-02  0 
 1.583123e-03  -2.012949e-02  0 
 2.653870e-03  -2.013445e-02  0 
 -1.591274e-03  -2.282982e-02  0 
 -5.323805e-04  -2.282784e-02  0 
 5.511305e-04  -2.282784e-02  0 
 1.610024e-03  -2.282982e-02  0 
 2.694392e-03  -2.283307e-02  0 
VECTORS displacement_ITER5 FLOAT
 -2.635120e-03  -2.013445e-02  0 
 -2.675642e-03  -2.283306e-02  0 
 -1.564373e-03  -2.012949e-02  0 
 -5.254678e-04  -2.012665e-02  0 
 5.442173e-04  -2.012665e-02  0 
 1.583123e-03  -2.012949e-02  0 
 2.653870e-03  -2.013445e-02  0 
 -1.591274e-03  -2.282982e-02  0 
 -5.323805e-04  -2.282784e-02  0 
 5.511305e-04  -2.282784e-02  0 
 1.610024e-03  -2.282982e-02  0 
 2.694392e-03  -2.283307e-02  0 
CELL_DATA 5
TENSORS element_stresses FLOAT
 -6.732838e-02  -8.586487e-03  0 
 -8.586487e-03  3.154464e-04  0 
 0  0  0 

 -3.318098e-03  -1.207958e-02  0 
 -1.207958e-02  2.109011e-04  0 
 0  0  0 

 4.264867e-07  -1.491869e-02  0 
 -1.491869e-02  -2.366105e-07  0 
 0  0  0 

 3.318014e-03  -1.207935e-02  0 
 -1.207935e-02  -2.113555e-04  0 
 0  0  0 

 6.732804e-02  -8.585882e-03  0 
 -8.585882e-03  -3.156472e-04  0 
 0  0  0 

TENSORS element_stresses FLOAT
 -6.732838e-02  -8.586487e-03  0 
 -8.586487e-03  3.154464e-04  0 
 0  0  0 

 -3.318098e-03  -1.207958e-02  0 
 -1.207958e-02  2.109011e-04  0 
 0  0  0 

 4.264867e-07  -1.491869e-02  0 
 -1.491869e-02  -2.366105e-07  0 
 0  0  0 

 3.318014e-03  -1.207935e-02  0 
 -1.207935e-02  -2.113555e-04  0 
 0  0  0 

 6.732804e-02  -8.585882e-03  0 
 -8.585882e-03  -3.156472e-04  0 
 0  0  0 

