# vtk DataFile Version 3.1
this is an vtk file created by FEMAC
ASCII
DATASET UNSTRUCTURED_GRID
POINTS 12 FLOAT
3.500000 0.000000 0.000000
4.000000 0.000000 0.000000
3.500000 0.200000 0.000000
3.500000 0.400000 0.000000
3.500000 0.600000 0.000000
3.500000 0.800000 0.000000
3.500000 1.000000 0.000000
4.000000 0.200000 0.000000
4.000000 0.400000 0.000000
4.000000 0.600000 0.000000
4.000000 0.800000 0.000000
4.000000 1.000000 0.000000
CELLS 5 25 
4 0 1 7 2
4 2 7 8 3
4 3 8 9 4
4 4  9 10  5
4 5 10 11  6
CELL_TYPES 5
9 9 9 9 9 
POINT_DATA 12
VECTORS displacement_ITER1 FLOAT
 -4.553616e-03  -1.870592e-02  0 
 -5.138673e-03  -2.359003e-02  0 
 -2.828708e-03  -1.869849e-02  0 
 -9.187935e-04  -1.867819e-02  0 
 9.837832e-04  -1.867834e-02  0 
 2.893678e-03  -1.869869e-02  0 
 4.617758e-03  -1.870654e-02  0 
 -3.002337e-03  -2.360866e-02  0 
 -1.002380e-03  -2.360181e-02  0 
 1.067342e-03  -2.360197e-02  0 
 3.067318e-03  -2.360886e-02  0 
 5.204482e-03  -2.359064e-02  0 
VECTORS displacement_ITER2 FLOAT
 -4.473630e-03  -1.834231e-02  0 
 -5.015227e-03  -2.313953e-02  0 
 -2.750480e-03  -1.834344e-02  0 
 -8.965709e-04  -1.832311e-02  0 
 9.228629e-04  -1.832308e-02  0 
 2.776774e-03  -1.834340e-02  0 
 4.500217e-03  -1.834206e-02  0 
 -2.933744e-03  -2.312353e-02  0 
 -9.841221e-04  -2.311217e-02  0 
 1.010418e-03  -2.311215e-02  0 
 2.960037e-03  -2.312349e-02  0 
 5.041229e-03  -2.313927e-02  0 
VECTORS displacement_ITER3 FLOAT
 -4.406733e-03  -1.811867e-02  0 
 -4.922350e-03  -2.284593e-02  0 
 -2.690122e-03  -1.811281e-02  0 
 -8.690897e-04  -1.809185e-02  0 
 9.061959e-04  -1.809178e-02  0 
 2.727234e-03  -1.811272e-02  0 
 4.444338e-03  -1.811826e-02  0 
 -2.879425e-03  -2.281643e-02  0 
 -9.588948e-04  -2.280314e-02  0 
 9.960090e-04  -2.280307e-02  0 
 2.916534e-03  -2.281633e-02  0 
 4.958966e-03  -2.284552e-02  0 
VECTORS displacement_ITER4 FLOAT
 -4.385193e-03  -1.806606e-02  0 
 -4.896696e-03  -2.275644e-02  0 
 -2.679227e-03  -1.804844e-02  0 
 -8.651472e-04  -1.802675e-02  0 
 9.083286e-04  -1.802645e-02  0 
 2.722596e-03  -1.804803e-02  0 
 4.429728e-03  -1.806524e-02  0 
 -2.869382e-03  -2.273488e-02  0 
 -9.550390e-04  -2.272237e-02  0 
 9.982098e-04  -2.272253e-02  0 
 2.912794e-03  -2.273510e-02  0 
 4.940062e-03  -2.275668e-02  0 
VECTORS displacement_ITER5 FLOAT
 -4.378577e-03  -1.804367e-02  0 
 -4.887358e-03  -2.271928e-02  0 
 -2.676235e-03  -1.802107e-02  0 
 -8.644330e-04  -1.799941e-02  0 
 9.097352e-04  -1.800054e-02  0 
 2.720678e-03  -1.802249e-02  0 
 4.419881e-03  -1.804618e-02  0 
 -2.866594e-03  -2.270214e-02  0 
 -9.541350e-04  -2.269000e-02  0 
 9.994530e-04  -2.268908e-02  0 
 2.910933e-03  -2.270101e-02  0 
 4.930612e-03  -2.271741e-02  0 
VECTORS displacement_ITER6 FLOAT
 -4.372491e-03  -1.804108e-02  0 
 -4.883119e-03  -2.270792e-02  0 
 -2.675061e-03  -1.801693e-02  0 
 -8.655851e-04  -1.799514e-02  0 
 9.079798e-04  -1.799298e-02  0 
 2.719111e-03  -1.801438e-02  0 
 4.421353e-03  -1.803645e-02  0 
 -2.865261e-03  -2.269199e-02  0 
 -9.551271e-04  -2.268014e-02  0 
 9.974894e-04  -2.268195e-02  0 
 2.909420e-03  -2.269411e-02  0 
 4.929833e-03  -2.271162e-02  0 
VECTORS displacement_ITER7 FLOAT
 -4.375043e-03  -1.803108e-02  0 
 -4.884699e-03  -2.270722e-02  0 
 -2.673384e-03  -1.801039e-02  0 
 -8.630516e-04  -1.798923e-02  0 
 9.095122e-04  -1.799149e-02  0 
 2.717912e-03  -1.801290e-02  0 
 4.415802e-03  -1.803579e-02  0 
 -2.863536e-03  -2.268837e-02  0 
 -9.523280e-04  -2.267616e-02  0 
 9.987737e-04  -2.267394e-02  0 
 2.908083e-03  -2.268588e-02  0 
 4.925393e-03  -2.270262e-02  0 
VECTORS displacement_ITER8 FLOAT
 -4.372754e-03  -1.803198e-02  0 
 -4.881982e-03  -2.270208e-02  0 
 -2.673386e-03  -1.801027e-02  0 
 -8.645916e-04  -1.798901e-02  0 
 9.079231e-04  -1.798831e-02  0 
 2.717440e-03  -1.800950e-02  0 
 4.417484e-03  -1.803055e-02  0 
 -2.863527e-03  -2.268451e-02  0 
 -9.537079e-04  -2.267246e-02  0 
 9.970427e-04  -2.267339e-02  0 
 2.907524e-03  -2.268555e-02  0 
 4.928089e-03  -2.270416e-02  0 
VECTORS displacement_ITER9 FLOAT
 -4.372464e-03  -1.803006e-02  0 
 -4.883481e-03  -2.270058e-02  0 
 -2.673828e-03  -1.800824e-02  0 
 -8.649359e-04  -1.798694e-02  0 
 9.081609e-04  -1.798615e-02  0 
 2.717599e-03  -1.800740e-02  0 
 4.417756e-03  -1.802847e-02  0 
 -2.863853e-03  -2.268287e-02  0 
 -9.538385e-04  -2.267080e-02  0 
 9.970499e-04  -2.267140e-02  0 
 2.907673e-03  -2.268349e-02  0 
 4.927819e-03  -2.270167e-02  0 
VECTORS displacement_ITER10 FLOAT
 -4.373302e-03  -1.802916e-02  0 
 -4.884340e-03  -2.270135e-02  0 
 -2.674011e-03  -1.800763e-02  0 
 -8.647035e-04  -1.798633e-02  0 
 9.087212e-04  -1.798640e-02  0 
 2.717899e-03  -1.800770e-02  0 
 4.417219e-03  -1.802935e-02  0 
 -2.864027e-03  -2.268340e-02  0 
 -9.535164e-04  -2.267132e-02  0 
 9.975260e-04  -2.267113e-02  0 
 2.907941e-03  -2.268318e-02  0 
 4.927724e-03  -2.270084e-02  0 
VECTORS displacement_ITER11 FLOAT
 -4.373575e-03  -1.802987e-02  0 
 -4.884313e-03  -2.270203e-02  0 
 -2.674096e-03  -1.800826e-02  0 
 -8.647372e-04  -1.798697e-02  0 
 9.087972e-04  -1.798709e-02  0 
 2.718053e-03  -1.800840e-02  0 
 4.417319e-03  -1.803009e-02  0 
 -2.864126e-03  -2.268421e-02  0 
 -9.535209e-04  -2.267215e-02  0 
 9.975780e-04  -2.267204e-02  0 
 2.908082e-03  -2.268410e-02  0 
 4.928160e-03  -2.270183e-02  0 
VECTORS displacement_ITER12 FLOAT
 -4.373582e-03  -1.803043e-02  0 
 -4.884263e-03  -2.270242e-02  0 
 -2.674111e-03  -1.800876e-02  0 
 -8.647815e-04  -1.798746e-02  0 
 9.087620e-04  -1.798748e-02  0 
 2.718089e-03  -1.800878e-02  0 
 4.417509e-03  -1.803041e-02  0 
 -2.864148e-03  -2.268466e-02  0 
 -9.535598e-04  -2.267260e-02  0 
 9.975370e-04  -2.267261e-02  0 
 2.908124e-03  -2.268467e-02  0 
 4.928324e-03  -2.270250e-02  0 
VECTORS displacement_ITER13 FLOAT
 -4.373590e-03  -1.803066e-02  0 
 -4.884254e-03  -2.270269e-02  0 
 -2.674087e-03  -1.800901e-02  0 
 -8.647704e-04  -1.798772e-02  0 
 9.087521e-04  -1.798769e-02  0 
 2.718086e-03  -1.800899e-02  0 
 4.417594e-03  -1.803062e-02  0 
 -2.864132e-03  -2.268489e-02  0 
 -9.535508e-04  -2.267283e-02  0 
 9.975283e-04  -2.267285e-02  0 
 2.908133e-03  -2.268491e-02  0 
 4.928289e-03  -2.270273e-02  0 
VECTORS displacement_ITER14 FLOAT
 -4.373613e-03  -1.803073e-02  0 
 -4.884231e-03  -2.270280e-02  0 
 -2.674068e-03  -1.800910e-02  0 
 -8.647522e-04  -1.798780e-02  0 
 9.087564e-04  -1.798778e-02  0 
 2.718075e-03  -1.800908e-02  0 
 4.417605e-03  -1.803074e-02  0 
 -2.864122e-03  -2.268498e-02  0 
 -9.535359e-04  -2.267291e-02  0 
 9.975358e-04  -2.267292e-02  0 
 2.908131e-03  -2.268498e-02  0 
 4.928222e-03  -2.270277e-02  0 
VECTORS displacement_ITER15 FLOAT
 -4.373614e-03  -1.803073e-02  0 
 -4.884204e-03  -2.270275e-02  0 
 -2.674069e-03  -1.800907e-02  0 
 -8.647532e-04  -1.798778e-02  0 
 9.087558e-04  -1.798777e-02  0 
 2.718067e-03  -1.800907e-02  0 
 4.417597e-03  -1.803073e-02  0 
 -2.864126e-03  -2.268495e-02  0 
 -9.535390e-04  -2.267289e-02  0 
 9.975374e-04  -2.267289e-02  0 
 2.908126e-03  -2.268495e-02  0 
 4.928201e-03  -2.270274e-02  0 
VECTORS displacement_ITER16 FLOAT
 -4.373615e-03  -1.803072e-02  0 
 -4.884195e-03  -2.270273e-02  0 
 -2.674067e-03  -1.800906e-02  0 
 -8.647527e-04  -1.798777e-02  0 
 9.087541e-04  -1.798776e-02  0 
 2.718064e-03  -1.800906e-02  0 
 4.417593e-03  -1.803072e-02  0 
 -2.864125e-03  -2.268494e-02  0 
 -9.535394e-04  -2.267288e-02  0 
 9.975367e-04  -2.267288e-02  0 
 2.908124e-03  -2.268494e-02  0 
 4.928198e-03  -2.270273e-02  0 
VECTORS displacement_ITER17 FLOAT
 -4.373614e-03  -1.803072e-02  0 
 -4.884195e-03  -2.270273e-02  0 
 -2.674065e-03  -1.800906e-02  0 
 -8.647516e-04  -1.798777e-02  0 
 9.087540e-04  -1.798776e-02  0 
 2.718063e-03  -1.800906e-02  0 
 4.417592e-03  -1.803072e-02  0 
 -2.864123e-03  -2.268493e-02  0 
 -9.535386e-04  -2.267287e-02  0 
 9.975367e-04  -2.267287e-02  0 
 2.908123e-03  -2.268493e-02  0 
 4.928197e-03  -2.270273e-02  0 
VECTORS displacement_ITER18 FLOAT
 -4.373612e-03  -1.803072e-02  0 
 -4.884196e-03  -2.270273e-02  0 
 -2.674065e-03  -1.800906e-02  0 
 -8.647520e-04  -1.798777e-02  0 
 9.087541e-04  -1.798776e-02  0 
 2.718063e-03  -1.800906e-02  0 
 4.417593e-03  -1.803072e-02  0 
 -2.864123e-03  -2.268494e-02  0 
 -9.535391e-04  -2.267287e-02  0 
 9.975369e-04  -2.267287e-02  0 
 2.908123e-03  -2.268493e-02  0 
 4.928196e-03  -2.270273e-02  0 
VECTORS displacement_ITER19 FLOAT
 -4.373613e-03  -1.803072e-02  0 
 -4.884196e-03  -2.270273e-02  0 
 -2.674065e-03  -1.800906e-02  0 
 -8.647520e-04  -1.798777e-02  0 
 9.087543e-04  -1.798776e-02  0 
 2.718064e-03  -1.800906e-02  0 
 4.417593e-03  -1.803072e-02  0 
 -2.864123e-03  -2.268494e-02  0 
 -9.535392e-04  -2.267287e-02  0 
 9.975371e-04  -2.267287e-02  0 
 2.908123e-03  -2.268493e-02  0 
 4.928197e-03  -2.270273e-02  0 
VECTORS displacement_ITER20 FLOAT
 -4.373613e-03  -1.803072e-02  0 
 -4.884196e-03  -2.270273e-02  0 
 -2.674065e-03  -1.800906e-02  0 
 -8.647518e-04  -1.798777e-02  0 
 9.087543e-04  -1.798776e-02  0 
 2.718063e-03  -1.800906e-02  0 
 4.417593e-03  -1.803072e-02  0 
 -2.864123e-03  -2.268494e-02  0 
 -9.535391e-04  -2.267287e-02  0 
 9.975372e-04  -2.267287e-02  0 
 2.908123e-03  -2.268493e-02  0 
 4.928197e-03  -2.270273e-02  0 
VECTORS displacement_ITER21 FLOAT
 -4.373613e-03  -1.803072e-02  0 
 -4.884196e-03  -2.270273e-02  0 
 -2.674065e-03  -1.800906e-02  0 
 -8.647518e-04  -1.798777e-02  0 
 9.087543e-04  -1.798776e-02  0 
 2.718063e-03  -1.800906e-02  0 
 4.417593e-03  -1.803072e-02  0 
 -2.864123e-03  -2.268494e-02  0 
 -9.535391e-04  -2.267287e-02  0 
 9.975372e-04  -2.267287e-02  0 
 2.908123e-03  -2.268493e-02  0 
 4.928197e-03  -2.270273e-02  0 
VECTORS displacement_ITER22 FLOAT
 -4.373613e-03  -1.803072e-02  0 
 -4.884196e-03  -2.270273e-02  0 
 -2.674065e-03  -1.800906e-02  0 
 -8.647519e-04  -1.798777e-02  0 
 9.087542e-04  -1.798776e-02  0 
 2.718063e-03  -1.800906e-02  0 
 4.417593e-03  -1.803072e-02  0 
 -2.864123e-03  -2.268494e-02  0 
 -9.535391e-04  -2.267287e-02  0 
 9.975372e-04  -2.267287e-02  0 
 2.908123e-03  -2.268493e-02  0 
 4.928197e-03  -2.270273e-02  0 
VECTORS displacement_ITER23 FLOAT
 -4.373613e-03  -1.803072e-02  0 
 -4.884196e-03  -2.270273e-02  0 
 -2.674065e-03  -1.800906e-02  0 
 -8.647518e-04  -1.798777e-02  0 
 9.087543e-04  -1.798776e-02  0 
 2.718063e-03  -1.800906e-02  0 
 4.417593e-03  -1.803072e-02  0 
 -2.864123e-03  -2.268494e-02  0 
 -9.535391e-04  -2.267287e-02  0 
 9.975372e-04  -2.267287e-02  0 
 2.908123e-03  -2.268493e-02  0 
 4.928197e-03  -2.270273e-02  0 
VECTORS displacement_ITER24 FLOAT
 -4.373613e-03  -1.803072e-02  0 
 -4.884196e-03  -2.270273e-02  0 
 -2.674065e-03  -1.800906e-02  0 
 -8.647518e-04  -1.798777e-02  0 
 9.087543e-04  -1.798776e-02  0 
 2.718064e-03  -1.800906e-02  0 
 4.417593e-03  -1.803072e-02  0 
 -2.864123e-03  -2.268494e-02  0 
 -9.535391e-04  -2.267287e-02  0 
 9.975372e-04  -2.267287e-02  0 
 2.908123e-03  -2.268493e-02  0 
 4.928197e-03  -2.270273e-02  0 
VECTORS displacement_ITER25 FLOAT
 -4.373613e-03  -1.803072e-02  0 
 -4.884196e-03  -2.270273e-02  0 
 -2.674065e-03  -1.800906e-02  0 
 -8.647518e-04  -1.798777e-02  0 
 9.087543e-04  -1.798776e-02  0 
 2.718063e-03  -1.800906e-02  0 
 4.417593e-03  -1.803072e-02  0 
 -2.864123e-03  -2.268494e-02  0 
 -9.535391e-04  -2.267287e-02  0 
 9.975372e-04  -2.267287e-02  0 
 2.908123e-03  -2.268493e-02  0 
 4.928197e-03  -2.270273e-02  0 
CELL_DATA 5
TENSORS element_stresses FLOAT
 -7.374175e-02  -3.756505e-03  0 
 -3.756505e-03  -1.225871e-02  0 
 0  0  0 

 -2.789297e-01  -4.710351e-02  0 
 -4.710351e-02  -2.816244e-04  0 
 0  0  0 

 -7.232673e-08  -4.520004e-03  0 
 -4.520004e-03  1.208369e-06  0 
 0  0  0 

 2.789273e-01  -4.711045e-02  0 
 -4.711045e-02  2.826569e-04  0 
 0  0  0 

 7.374417e-02  -3.759530e-03  0 
 -3.759530e-03  1.225921e-02  0 
 0  0  0 

TENSORS element_stresses FLOAT
 -7.374175e-02  -3.756505e-03  0 
 -3.756505e-03  -1.225871e-02  0 
 0  0  0 

 -2.789297e-01  -4.710351e-02  0 
 -4.710351e-02  -2.816244e-04  0 
 0  0  0 

 -7.232673e-08  -4.520004e-03  0 
 -4.520004e-03  1.208369e-06  0 
 0  0  0 

 2.789273e-01  -4.711045e-02  0 
 -4.711045e-02  2.826569e-04  0 
 0  0  0 

 7.374417e-02  -3.759530e-03  0 
 -3.759530e-03  1.225921e-02  0 
 0  0  0 

