# vtk DataFile Version 3.1
this is an vtk file created by FEMAC
ASCII
DATASET UNSTRUCTURED_GRID
POINTS 12 FLOAT
1.000000 0.000000 0.000000
1.500000 0.000000 0.000000
1.000000 0.200000 0.000000
1.000000 0.400000 0.000000
1.000000 0.600000 0.000000
1.000000 0.800000 0.000000
1.000000 1.000000 0.000000
1.500000 0.200000 0.000000
1.500000 0.400000 0.000000
1.500000 0.600000 0.000000
1.500000 0.800000 0.000000
1.500000 1.000000 0.000000
CELLS 5 25 
4 0 1 7 2
4 2 7 8 3
4 3 8 9 4
4 4  9 10  5
4 5 10 11  6
CELL_TYPES 5
9 9 9 9 9 
POINT_DATA 12
VECTORS displacement_ITER1 FLOAT
 -1.909486e-03  -1.509494e-03  0 
 -2.196853e-03  -3.655097e-03  0 
 -9.786541e-04  -1.450773e-03  0 
 -3.348286e-04  -1.378594e-03  0 
 4.044499e-04  -1.380339e-03  0 
 1.036204e-03  -1.435064e-03  0 
 1.973948e-03  -1.494188e-03  0 
 -1.411926e-03  -3.604565e-03  0 
 -4.218229e-04  -3.516241e-03  0 
 4.867826e-04  -3.514524e-03  0 
 1.472201e-03  -3.604831e-03  0 
 2.262672e-03  -3.655448e-03  0 
VECTORS displacement_ITER2 FLOAT
 -1.900092e-03  -1.501426e-03  0 
 -2.175749e-03  -3.604001e-03  0 
 -9.719514e-04  -1.444391e-03  0 
 -3.399004e-04  -1.372920e-03  0 
 3.948053e-04  -1.371126e-03  0 
 1.008839e-03  -1.432898e-03  0 
 1.935922e-03  -1.488042e-03  0 
 -1.419628e-03  -3.554776e-03  0 
 -4.331065e-04  -3.504706e-03  0 
 4.780908e-04  -3.503119e-03  0 
 1.458799e-03  -3.551278e-03  0 
 2.215263e-03  -3.600650e-03  0 
VECTORS displacement_ITER3 FLOAT
 -1.896349e-03  -1.476922e-03  0 
 -2.165392e-03  -3.565442e-03  0 
 -9.700425e-04  -1.423788e-03  0 
 -3.466142e-04  -1.356789e-03  0 
 3.851100e-04  -1.357104e-03  0 
 9.929945e-04  -1.415992e-03  0 
 1.923503e-03  -1.469954e-03  0 
 -1.425502e-03  -3.517797e-03  0 
 -4.406906e-04  -3.486517e-03  0 
 4.715622e-04  -3.484589e-03  0 
 1.452712e-03  -3.514617e-03  0 
 2.194653e-03  -3.561852e-03  0 
VECTORS displacement_ITER4 FLOAT
 -1.889260e-03  -1.471208e-03  0 
 -2.157046e-03  -3.561725e-03  0 
 -9.597082e-04  -1.418731e-03  0 
 -3.390549e-04  -1.358039e-03  0 
 3.897170e-04  -1.358326e-03  0 
 9.970627e-04  -1.409195e-03  0 
 1.932172e-03  -1.462403e-03  0 
 -1.416689e-03  -3.515487e-03  0 
 -4.323498e-04  -3.479930e-03  0 
 4.770462e-04  -3.479249e-03  0 
 1.458949e-03  -3.515716e-03  0 
 2.201110e-03  -3.562489e-03  0 
VECTORS displacement_ITER5 FLOAT
 -1.889171e-03  -1.469717e-03  0 
 -2.156174e-03  -3.564460e-03  0 
 -9.568689e-04  -1.417269e-03  0 
 -3.374349e-04  -1.360565e-03  0 
 3.898284e-04  -1.360538e-03  0 
 9.966098e-04  -1.407533e-03  0 
 1.934071e-03  -1.460307e-03  0 
 -1.414957e-03  -3.518434e-03  0 
 -4.308523e-04  -3.477934e-03  0 
 4.766319e-04  -3.477147e-03  0 
 1.459225e-03  -3.518639e-03  0 
 2.202556e-03  -3.564940e-03  0 
VECTORS displacement_ITER6 FLOAT
 -1.889932e-03  -1.469346e-03  0 
 -2.156763e-03  -3.566133e-03  0 
 -9.565185e-04  -1.416853e-03  0 
 -3.376961e-04  -1.360981e-03  0 
 3.895836e-04  -1.360839e-03  0 
 9.958323e-04  -1.407841e-03  0 
 1.933816e-03  -1.460547e-03  0 
 -1.415265e-03  -3.520007e-03  0 
 -4.309471e-04  -3.477395e-03  0 
 4.760509e-04  -3.476554e-03  0 
 1.458935e-03  -3.519469e-03  0 
 2.202230e-03  -3.565770e-03  0 
VECTORS displacement_ITER7 FLOAT
 -1.889995e-03  -1.469381e-03  0 
 -2.156809e-03  -3.567006e-03  0 
 -9.559800e-04  -1.416850e-03  0 
 -3.381560e-04  -1.360808e-03  0 
 3.896494e-04  -1.360575e-03  0 
 9.953101e-04  -1.408327e-03  0 
 1.933649e-03  -1.461029e-03  0 
 -1.415417e-03  -3.520792e-03  0 
 -4.309098e-04  -3.476952e-03  0 
 4.757768e-04  -3.476212e-03  0 
 1.459054e-03  -3.519942e-03  0 
 2.201964e-03  -3.566395e-03  0 
VECTORS displacement_ITER8 FLOAT
 -1.889556e-03  -1.469698e-03  0 
 -2.156402e-03  -3.566773e-03  0 
 -9.556391e-04  -1.417152e-03  0 
 -3.385287e-04  -1.360722e-03  0 
 3.896827e-04  -1.360449e-03  0 
 9.950368e-04  -1.408441e-03  0 
 1.933498e-03  -1.461138e-03  0 
 -1.415349e-03  -3.520565e-03  0 
 -4.309072e-04  -3.476911e-03  0 
 4.755577e-04  -3.476252e-03  0 
 1.459044e-03  -3.519989e-03  0 
 2.201774e-03  -3.566484e-03  0 
VECTORS displacement_ITER9 FLOAT
 -1.888933e-03  -1.469961e-03  0 
 -2.155834e-03  -3.566139e-03  0 
 -9.552228e-04  -1.417380e-03  0 
 -3.390842e-04  -1.360713e-03  0 
 3.897220e-04  -1.360396e-03  0 
 9.944721e-04  -1.408472e-03  0 
 1.932936e-03  -1.461161e-03  0 
 -1.415237e-03  -3.519964e-03  0 
 -4.308827e-04  -3.476971e-03  0 
 4.751165e-04  -3.476382e-03  0 
 1.458744e-03  -3.519619e-03  0 
 2.201208e-03  -3.566108e-03  0 
VECTORS displacement_ITER10 FLOAT
 -1.888835e-03  -1.469759e-03  0 
 -2.155762e-03  -3.565973e-03  0 
 -9.550537e-04  -1.417151e-03  0 
 -3.391893e-04  -1.360714e-03  0 
 3.898358e-04  -1.360392e-03  0 
 9.942451e-04  -1.408394e-03  0 
 1.932655e-03  -1.461093e-03  0 
 -1.415177e-03  -3.519802e-03  0 
 -4.307540e-04  -3.476952e-03  0 
 4.750044e-04  -3.476363e-03  0 
 1.458606e-03  -3.519284e-03  0 
 2.200954e-03  -3.565775e-03  0 
VECTORS displacement_ITER11 FLOAT
 -1.888868e-03  -1.469539e-03  0 
 -2.155811e-03  -3.566000e-03  0 
 -9.549737e-04  -1.416916e-03  0 
 -3.391437e-04  -1.360745e-03  0 
 3.899511e-04  -1.360428e-03  0 
 9.942140e-04  -1.408257e-03  0 
 1.932641e-03  -1.460967e-03  0 
 -1.415128e-03  -3.519821e-03  0 
 -4.306204e-04  -3.476934e-03  0 
 4.750185e-04  -3.476333e-03  0 
 1.458600e-03  -3.519179e-03  0 
 2.200970e-03  -3.565684e-03  0 
VECTORS displacement_ITER12 FLOAT
 -1.888872e-03  -1.469532e-03  0 
 -2.155821e-03  -3.566051e-03  0 
 -9.549537e-04  -1.416909e-03  0 
 -3.391374e-04  -1.360795e-03  0 
 3.899904e-04  -1.360481e-03  0 
 9.942278e-04  -1.408203e-03  0 
 1.932707e-03  -1.460913e-03  0 
 -1.415113e-03  -3.519868e-03  0 
 -4.305801e-04  -3.476974e-03  0 
 4.750172e-04  -3.476367e-03  0 
 1.458618e-03  -3.519267e-03  0 
 2.201051e-03  -3.565777e-03  0 
VECTORS displacement_ITER13 FLOAT
 -1.888879e-03  -1.469620e-03  0 
 -2.155833e-03  -3.566130e-03  0 
 -9.549685e-04  -1.417002e-03  0 
 -3.391542e-04  -1.360836e-03  0 
 3.900079e-04  -1.360526e-03  0 
 9.942473e-04  -1.408232e-03  0 
 1.932768e-03  -1.460938e-03  0 
 -1.415128e-03  -3.519945e-03  0 
 -4.305783e-04  -3.477046e-03  0 
 4.750129e-04  -3.476437e-03  0 
 1.458637e-03  -3.519411e-03  0 
 2.201120e-03  -3.565922e-03  0 
VECTORS displacement_ITER14 FLOAT
 -1.888908e-03  -1.469666e-03  0 
 -2.155865e-03  -3.566200e-03  0 
 -9.549910e-04  -1.417052e-03  0 
 -3.391605e-04  -1.360830e-03  0 
 3.900328e-04  -1.360526e-03  0 
 9.942592e-04  -1.408288e-03  0 
 1.932780e-03  -1.460993e-03  0 
 -1.415151e-03  -3.520012e-03  0 
 -4.305735e-04  -3.477089e-03  0 
 4.750247e-04  -3.476475e-03  0 
 1.458651e-03  -3.519476e-03  0 
 2.201140e-03  -3.565989e-03  0 
VECTORS displacement_ITER15 FLOAT
 -1.888921e-03  -1.469657e-03  0 
 -2.155881e-03  -3.566208e-03  0 
 -9.549977e-04  -1.417043e-03  0 
 -3.391590e-04  -1.360799e-03  0 
 3.900440e-04  -1.360497e-03  0 
 9.942593e-04  -1.408303e-03  0 
 1.932769e-03  -1.461010e-03  0 
 -1.415160e-03  -3.520017e-03  0 
 -4.305697e-04  -3.477079e-03  0 
 4.750335e-04  -3.476462e-03  0 
 1.458655e-03  -3.519459e-03  0 
 2.201131e-03  -3.565974e-03  0 
VECTORS displacement_ITER16 FLOAT
 -1.888912e-03  -1.469667e-03  0 
 -2.155872e-03  -3.566202e-03  0 
 -9.549939e-04  -1.417053e-03  0 
 -3.391628e-04  -1.360797e-03  0 
 3.900384e-04  -1.360496e-03  0 
 9.942567e-04  -1.408297e-03  0 
 1.932773e-03  -1.461004e-03  0 
 -1.415158e-03  -3.520011e-03  0 
 -4.305726e-04  -3.477073e-03  0 
 4.750277e-04  -3.476456e-03  0 
 1.458653e-03  -3.519468e-03  0 
 2.201134e-03  -3.565983e-03  0 
VECTORS displacement_ITER17 FLOAT
 -1.888914e-03  -1.469665e-03  0 
 -2.155874e-03  -3.566212e-03  0 
 -9.549910e-04  -1.417052e-03  0 
 -3.391582e-04  -1.360800e-03  0 
 3.900421e-04  -1.360499e-03  0 
 9.942562e-04  -1.408305e-03  0 
 1.932768e-03  -1.461012e-03  0 
 -1.415156e-03  -3.520020e-03  0 
 -4.305675e-04  -3.477074e-03  0 
 4.750311e-04  -3.476456e-03  0 
 1.458653e-03  -3.519467e-03  0 
 2.201130e-03  -3.565981e-03  0 
VECTORS displacement_ITER18 FLOAT
 -1.888914e-03  -1.469667e-03  0 
 -2.155873e-03  -3.566213e-03  0 
 -9.549911e-04  -1.417055e-03  0 
 -3.391593e-04  -1.360802e-03  0 
 3.900414e-04  -1.360501e-03  0 
 9.942561e-04  -1.408305e-03  0 
 1.932770e-03  -1.461012e-03  0 
 -1.415156e-03  -3.520020e-03  0 
 -4.305685e-04  -3.477076e-03  0 
 4.750301e-04  -3.476458e-03  0 
 1.458653e-03  -3.519470e-03  0 
 2.201131e-03  -3.565984e-03  0 
VECTORS displacement_ITER19 FLOAT
 -1.888914e-03  -1.469667e-03  0 
 -2.155874e-03  -3.566215e-03  0 
 -9.549910e-04  -1.417055e-03  0 
 -3.391586e-04  -1.360803e-03  0 
 3.900424e-04  -1.360502e-03  0 
 9.942561e-04  -1.408306e-03  0 
 1.932769e-03  -1.461013e-03  0 
 -1.415156e-03  -3.520022e-03  0 
 -4.305677e-04  -3.477077e-03  0 
 4.750309e-04  -3.476460e-03  0 
 1.458653e-03  -3.519470e-03  0 
 2.201131e-03  -3.565984e-03  0 
VECTORS displacement_ITER20 FLOAT
 -1.888914e-03  -1.469668e-03  0 
 -2.155873e-03  -3.566215e-03  0 
 -9.549909e-04  -1.417056e-03  0 
 -3.391588e-04  -1.360803e-03  0 
 3.900423e-04  -1.360503e-03  0 
 9.942561e-04  -1.408306e-03  0 
 1.932770e-03  -1.461013e-03  0 
 -1.415156e-03  -3.520022e-03  0 
 -4.305679e-04  -3.477078e-03  0 
 4.750307e-04  -3.476460e-03  0 
 1.458654e-03  -3.519471e-03  0 
 2.201131e-03  -3.565985e-03  0 
VECTORS displacement_ITER21 FLOAT
 -1.888914e-03  -1.469668e-03  0 
 -2.155873e-03  -3.566215e-03  0 
 -9.549908e-04  -1.417056e-03  0 
 -3.391586e-04  -1.360804e-03  0 
 3.900426e-04  -1.360503e-03  0 
 9.942560e-04  -1.408307e-03  0 
 1.932769e-03  -1.461014e-03  0 
 -1.415156e-03  -3.520022e-03  0 
 -4.305677e-04  -3.477078e-03  0 
 4.750309e-04  -3.476460e-03  0 
 1.458654e-03  -3.519471e-03  0 
 2.201131e-03  -3.565985e-03  0 
VECTORS displacement_ITER22 FLOAT
 -1.888914e-03  -1.469668e-03  0 
 -2.155873e-03  -3.566215e-03  0 
 -9.549908e-04  -1.417056e-03  0 
 -3.391588e-04  -1.360804e-03  0 
 3.900424e-04  -1.360503e-03  0 
 9.942559e-04  -1.408307e-03  0 
 1.932769e-03  -1.461014e-03  0 
 -1.415156e-03  -3.520022e-03  0 
 -4.305678e-04  -3.477078e-03  0 
 4.750307e-04  -3.476460e-03  0 
 1.458654e-03  -3.519471e-03  0 
 2.201131e-03  -3.565985e-03  0 
VECTORS displacement_ITER23 FLOAT
 -1.888914e-03  -1.469668e-03  0 
 -2.155873e-03  -3.566215e-03  0 
 -9.549908e-04  -1.417056e-03  0 
 -3.391587e-04  -1.360804e-03  0 
 3.900425e-04  -1.360503e-03  0 
 9.942560e-04  -1.408307e-03  0 
 1.932769e-03  -1.461014e-03  0 
 -1.415156e-03  -3.520022e-03  0 
 -4.305678e-04  -3.477078e-03  0 
 4.750307e-04  -3.476461e-03  0 
 1.458654e-03  -3.519471e-03  0 
 2.201131e-03  -3.565985e-03  0 
VECTORS displacement_ITER24 FLOAT
 -1.888914e-03  -1.469668e-03  0 
 -2.155873e-03  -3.566215e-03  0 
 -9.549908e-04  -1.417056e-03  0 
 -3.391587e-04  -1.360804e-03  0 
 3.900425e-04  -1.360503e-03  0 
 9.942560e-04  -1.408307e-03  0 
 1.932770e-03  -1.461014e-03  0 
 -1.415156e-03  -3.520022e-03  0 
 -4.305678e-04  -3.477078e-03  0 
 4.750307e-04  -3.476461e-03  0 
 1.458654e-03  -3.519471e-03  0 
 2.201131e-03  -3.565985e-03  0 
VECTORS displacement_ITER25 FLOAT
 -1.888914e-03  -1.469668e-03  0 
 -2.155873e-03  -3.566215e-03  0 
 -9.549909e-04  -1.417056e-03  0 
 -3.391588e-04  -1.360804e-03  0 
 3.900425e-04  -1.360503e-03  0 
 9.942560e-04  -1.408307e-03  0 
 1.932770e-03  -1.461014e-03  0 
 -1.415156e-03  -3.520022e-03  0 
 -4.305678e-04  -3.477078e-03  0 
 4.750307e-04  -3.476461e-03  0 
 1.458654e-03  -3.519471e-03  0 
 2.201131e-03  -3.565986e-03  0 
CELL_DATA 5
TENSORS element_stresses FLOAT
 -7.176053e-01  -9.931810e-03  0 
 -9.931810e-03  3.173115e-02  0 
 0  0  0 

 -5.243704e-02  -1.678378e-02  0 
 -1.678378e-02  9.068002e-03  0 
 0  0  0 

 -6.298735e-03  -1.117177e-01  0 
 -1.117177e-01  4.068716e-04  0 
 0  0  0 

 5.288739e-02  -1.981005e-02  0 
 -1.981005e-02  -6.837333e-03  0 
 0  0  0 

 7.234537e-01  -1.050670e-02  0 
 -1.050670e-02  -3.101796e-02  0 
 0  0  0 

TENSORS element_stresses FLOAT
 -7.176053e-01  -9.931810e-03  0 
 -9.931810e-03  3.173115e-02  0 
 0  0  0 

 -5.243704e-02  -1.678378e-02  0 
 -1.678378e-02  9.068002e-03  0 
 0  0  0 

 -6.298735e-03  -1.117177e-01  0 
 -1.117177e-01  4.068716e-04  0 
 0  0  0 

 5.288739e-02  -1.981005e-02  0 
 -1.981005e-02  -6.837333e-03  0 
 0  0  0 

 7.234537e-01  -1.050670e-02  0 
 -1.050670e-02  -3.101796e-02  0 
 0  0  0 

