# vtk DataFile Version 3.1
this is an vtk file created by FEMAC
ASCII
DATASET UNSTRUCTURED_GRID
POINTS 12 FLOAT
0.500000 0.000000 0.000000
1.000000 0.000000 0.000000
0.500000 0.200000 0.000000
0.500000 0.400000 0.000000
0.500000 0.600000 0.000000
0.500000 0.800000 0.000000
0.500000 1.000000 0.000000
1.000000 0.200000 0.000000
1.000000 0.400000 0.000000
1.000000 0.600000 0.000000
1.000000 0.800000 0.000000
1.000000 1.000000 0.000000
CELLS 5 25 
4 0 1 7 2
4 2 7 8 3
4 3 8 9 4
4 4  9 10  5
4 5 10 11  6
CELL_TYPES 5
9 9 9 9 9 
POINT_DATA 12
VECTORS displacement_ITER1 FLOAT
 -5.077104e-04  -9.570753e-05  0 
 -1.978041e-03  -1.510837e-03  0 
 -3.930954e-04  -1.181387e-04  0 
 6.409900e-06  -1.100020e-04  0 
 1.129422e-04  -1.879640e-04  0 
 4.591045e-04  -2.178291e-04  0 
 3.626438e-04  -2.642537e-04  0 
 -9.186021e-04  -1.491293e-03  0 
 -2.797374e-04  -1.432302e-03  0 
 4.014678e-04  -1.378446e-03  0 
 9.794613e-04  -1.426616e-03  0 
 1.987085e-03  -1.408958e-03  0 
VECTORS displacement_ITER2 FLOAT
 -3.703330e-04  -3.068333e-04  0 
 -1.838535e-03  -1.355199e-03  0 
 -4.230246e-04  -2.250319e-04  0 
 -1.086120e-04  -2.031784e-04  0 
 2.666969e-05  -1.041990e-04  0 
 4.319838e-04  -1.285893e-04  0 
 4.925164e-04  -9.863925e-05  0 
 -9.572886e-04  -1.387382e-03  0 
 -3.930089e-04  -1.338179e-03  0 
 3.141482e-04  -1.447238e-03  0 
 9.630432e-04  -1.503581e-03  0 
 2.039263e-03  -1.579223e-03  0 
VECTORS displacement_ITER3 FLOAT
 -4.421760e-04  -1.944547e-04  0 
 -1.911633e-03  -1.476010e-03  0 
 -4.135476e-04  -1.508454e-04  0 
 -5.952476e-05  -1.340130e-04  0 
 1.000760e-04  -1.417184e-04  0 
 4.494063e-04  -1.768900e-04  0 
 4.103648e-04  -2.125148e-04  0 
 -9.533577e-04  -1.426713e-03  0 
 -3.416454e-04  -1.370009e-03  0 
 3.854751e-04  -1.365068e-03  0 
 9.870407e-04  -1.412434e-03  0 
 1.922723e-03  -1.450314e-03  0 
VECTORS displacement_ITER4 FLOAT
 -4.517930e-04  -1.834105e-04  0 
 -1.896736e-03  -1.477438e-03  0 
 -4.106939e-04  -1.417829e-04  0 
 -5.666197e-05  -1.247256e-04  0 
 1.099164e-04  -1.423389e-04  0 
 4.553243e-04  -1.783161e-04  0 
 3.972705e-04  -2.244556e-04  0 
 -9.529483e-04  -1.421357e-03  0 
 -3.375449e-04  -1.365186e-03  0 
 3.944841e-04  -1.357523e-03  0 
 9.933386e-04  -1.405289e-03  0 
 1.930335e-03  -1.451108e-03  0 
VECTORS displacement_ITER5 FLOAT
 -4.479902e-04  -1.907033e-04  0 
 -1.889519e-03  -1.470360e-03  0 
 -4.117205e-04  -1.436748e-04  0 
 -6.087154e-05  -1.264525e-04  0 
 1.087326e-04  -1.390690e-04  0 
 4.558509e-04  -1.748511e-04  0 
 3.994884e-04  -2.206940e-04  0 
 -9.545800e-04  -1.416867e-03  0 
 -3.408679e-04  -1.360847e-03  0 
 3.924467e-04  -1.359672e-03  0 
 9.942532e-04  -1.407656e-03  0 
 1.935300e-03  -1.460527e-03  0 
VECTORS displacement_ITER6 FLOAT
 -4.467624e-04  -1.929534e-04  0 
 -1.889331e-03  -1.469054e-03  0 
 -4.122220e-04  -1.439691e-04  0 
 -6.204957e-05  -1.269664e-04  0 
 1.084741e-04  -1.383226e-04  0 
 4.558363e-04  -1.738849e-04  0 
 4.003175e-04  -2.202794e-04  0 
 -9.551360e-04  -1.416556e-03  0 
 -3.412950e-04  -1.360416e-03  0 
 3.914620e-04  -1.360398e-03  0 
 9.943411e-04  -1.408331e-03  0 
 1.935045e-03  -1.461651e-03  0 
VECTORS displacement_ITER7 FLOAT
 -4.470556e-04  -1.926772e-04  0 
 -1.889703e-03  -1.469466e-03  0 
 -4.121667e-04  -1.433528e-04  0 
 -6.214921e-05  -1.267055e-04  0 
 1.089943e-04  -1.384197e-04  0 
 4.559555e-04  -1.737274e-04  0 
 4.000220e-04  -2.212578e-04  0 
 -9.551678e-04  -1.416991e-03  0 
 -3.403985e-04  -1.360731e-03  0 
 3.910784e-04  -1.360484e-03  0 
 9.944744e-04  -1.408360e-03  0 
 1.934195e-03  -1.460939e-03  0 
VECTORS displacement_ITER8 FLOAT
 -4.473987e-04  -1.920242e-04  0 
 -1.889602e-03  -1.469955e-03  0 
 -4.119416e-04  -1.431734e-04  0 
 -6.207047e-05  -1.266450e-04  0 
 1.091956e-04  -1.386348e-04  0 
 4.558460e-04  -1.738630e-04  0 
 3.999597e-04  -2.212842e-04  0 
 -9.550305e-04  -1.417140e-03  0 
 -3.398405e-04  -1.360862e-03  0 
 3.908656e-04  -1.360428e-03  0 
 9.944029e-04  -1.408289e-03  0 
 1.933698e-03  -1.460927e-03  0 
VECTORS displacement_ITER9 FLOAT
 -4.475123e-04  -1.915651e-04  0 
 -1.889187e-03  -1.470161e-03  0 
 -4.116943e-04  -1.432495e-04  0 
 -6.220401e-05  -1.267738e-04  0 
 1.091981e-04  -1.387377e-04  0 
 4.555093e-04  -1.739401e-04  0 
 4.003014e-04  -2.206158e-04  0 
 -9.549282e-04  -1.417123e-03  0 
 -3.393793e-04  -1.360845e-03  0 
 3.903517e-04  -1.360419e-03  0 
 9.941881e-04  -1.408251e-03  0 
 1.932844e-03  -1.461285e-03  0 
VECTORS displacement_ITER10 FLOAT
 -4.474531e-04  -1.916177e-04  0 
 -1.888961e-03  -1.469854e-03  0 
 -4.116742e-04  -1.432251e-04  0 
 -6.233454e-05  -1.267375e-04  0 
 1.092000e-04  -1.386087e-04  0 
 4.554459e-04  -1.738362e-04  0 
 4.004129e-04  -2.204769e-04  0 
 -9.549655e-04  -1.417050e-03  0 
 -3.392828e-04  -1.360767e-03  0 
 3.901471e-04  -1.360433e-03  0 
 9.941787e-04  -1.408249e-03  0 
 1.932541e-03  -1.461150e-03  0 
VECTORS displacement_ITER11 FLOAT
 -4.474367e-04  -1.916915e-04  0 
 -1.888850e-03  -1.469544e-03  0 
 -4.116964e-04  -1.431227e-04  0 
 -6.238314e-05  -1.266122e-04  0 
 1.092432e-04  -1.384632e-04  0 
 4.555052e-04  -1.737239e-04  0 
 4.003533e-04  -2.206021e-04  0 
 -9.550065e-04  -1.416998e-03  0 
 -3.392469e-04  -1.360713e-03  0 
 3.901075e-04  -1.360442e-03  0 
 9.942503e-04  -1.408257e-03  0 
 1.932566e-03  -1.460900e-03  0 
VECTORS displacement_ITER12 FLOAT
 -4.474571e-04  -1.916700e-04  0 
 -1.888838e-03  -1.469511e-03  0 
 -4.116907e-04  -1.430838e-04  0 
 -6.237714e-05  -1.265622e-04  0 
 1.092610e-04  -1.384259e-04  0 
 4.555257e-04  -1.737007e-04  0 
 4.003169e-04  -2.206307e-04  0 
 -9.550040e-04  -1.416997e-03  0 
 -3.392079e-04  -1.360716e-03  0 
 3.900915e-04  -1.360452e-03  0 
 9.942708e-04  -1.408269e-03  0 
 1.932651e-03  -1.460889e-03  0 
VECTORS displacement_ITER13 FLOAT
 -4.474759e-04  -1.916261e-04  0 
 -1.888880e-03  -1.469615e-03  0 
 -4.116762e-04  -1.430913e-04  0 
 -6.235908e-05  -1.265632e-04  0 
 1.092558e-04  -1.384384e-04  0 
 4.555148e-04  -1.737168e-04  0 
 4.003174e-04  -2.205849e-04  0 
 -9.549853e-04  -1.417024e-03  0 
 -3.391709e-04  -1.360752e-03  0 
 3.900646e-04  -1.360472e-03  0 
 9.942567e-04  -1.408287e-03  0 
 1.932736e-03  -1.461004e-03  0 
VECTORS displacement_ITER14 FLOAT
 -4.474737e-04  -1.916253e-04  0 
 -1.888922e-03  -1.469679e-03  0 
 -4.116776e-04  -1.430997e-04  0 
 -6.235458e-05  -1.265658e-04  0 
 1.092508e-04  -1.384415e-04  0 
 4.555097e-04  -1.737211e-04  0 
 4.003227e-04  -2.205690e-04  0 
 -9.549809e-04  -1.417047e-03  0 
 -3.391542e-04  -1.360786e-03  0 
 3.900431e-04  -1.360491e-03  0 
 9.942483e-04  -1.408300e-03  0 
 1.932778e-03  -1.461051e-03  0 
VECTORS displacement_ITER15 FLOAT
 -4.474609e-04  -1.916558e-04  0 
 -1.888925e-03  -1.469656e-03  0 
 -4.116893e-04  -1.430965e-04  0 
 -6.236221e-05  -1.265591e-04  0 
 1.092532e-04  -1.384296e-04  0 
 4.555175e-04  -1.737096e-04  0 
 4.003200e-04  -2.205955e-04  0 
 -9.549902e-04  -1.417049e-03  0 
 -3.391593e-04  -1.360794e-03  0 
 3.900409e-04  -1.360498e-03  0 
 9.942549e-04  -1.408303e-03  0 
 1.932773e-03  -1.461007e-03  0 
VECTORS displacement_ITER16 FLOAT
 -4.474615e-04  -1.916571e-04  0 
 -1.888918e-03  -1.469657e-03  0 
 -4.116895e-04  -1.430987e-04  0 
 -6.236112e-05  -1.265598e-04  0 
 1.092546e-04  -1.384322e-04  0 
 4.555176e-04  -1.737121e-04  0 
 4.003191e-04  -2.205977e-04  0 
 -9.549906e-04  -1.417051e-03  0 
 -3.391592e-04  -1.360797e-03  0 
 3.900425e-04  -1.360499e-03  0 
 9.942554e-04  -1.408303e-03  0 
 1.932769e-03  -1.461006e-03  0 
VECTORS displacement_ITER17 FLOAT
 -4.474628e-04  -1.916550e-04  0 
 -1.888915e-03  -1.469664e-03  0 
 -4.116885e-04  -1.431015e-04  0 
 -6.235952e-05  -1.265619e-04  0 
 1.092546e-04  -1.384353e-04  0 
 4.555167e-04  -1.737151e-04  0 
 4.003191e-04  -2.205964e-04  0 
 -9.549899e-04  -1.417053e-03  0 
 -3.391586e-04  -1.360800e-03  0 
 3.900426e-04  -1.360500e-03  0 
 9.942550e-04  -1.408304e-03  0 
 1.932769e-03  -1.461012e-03  0 
VECTORS displacement_ITER18 FLOAT
 -4.474622e-04  -1.916567e-04  0 
 -1.888915e-03  -1.469666e-03  0 
 -4.116892e-04  -1.431023e-04  0 
 -6.235939e-05  -1.265624e-04  0 
 1.092546e-04  -1.384354e-04  0 
 4.555172e-04  -1.737152e-04  0 
 4.003188e-04  -2.205979e-04  0 
 -9.549905e-04  -1.417054e-03  0 
 -3.391589e-04  -1.360802e-03  0 
 3.900426e-04  -1.360501e-03  0 
 9.942556e-04  -1.408305e-03  0 
 1.932769e-03  -1.461012e-03  0 
VECTORS displacement_ITER19 FLOAT
 -4.474619e-04  -1.916579e-04  0 
 -1.888914e-03  -1.469667e-03  0 
 -4.116896e-04  -1.431025e-04  0 
 -6.235915e-05  -1.265625e-04  0 
 1.092545e-04  -1.384355e-04  0 
 4.555175e-04  -1.737154e-04  0 
 4.003185e-04  -2.205985e-04  0 
 -9.549909e-04  -1.417056e-03  0 
 -3.391589e-04  -1.360803e-03  0 
 3.900426e-04  -1.360502e-03  0 
 9.942559e-04  -1.408306e-03  0 
 1.932769e-03  -1.461013e-03  0 
VECTORS displacement_ITER20 FLOAT
 -4.474621e-04  -1.916578e-04  0 
 -1.888914e-03  -1.469668e-03  0 
 -4.116896e-04  -1.431026e-04  0 
 -6.235889e-05  -1.265626e-04  0 
 1.092544e-04  -1.384358e-04  0 
 4.555175e-04  -1.737156e-04  0 
 4.003184e-04  -2.205984e-04  0 
 -9.549908e-04  -1.417056e-03  0 
 -3.391588e-04  -1.360803e-03  0 
 3.900425e-04  -1.360503e-03  0 
 9.942559e-04  -1.408306e-03  0 
 1.932770e-03  -1.461014e-03  0 
VECTORS displacement_ITER21 FLOAT
 -4.474621e-04  -1.916578e-04  0 
 -1.888914e-03  -1.469668e-03  0 
 -4.116896e-04  -1.431027e-04  0 
 -6.235880e-05  -1.265628e-04  0 
 1.092543e-04  -1.384359e-04  0 
 4.555175e-04  -1.737157e-04  0 
 4.003184e-04  -2.205984e-04  0 
 -9.549908e-04  -1.417056e-03  0 
 -3.391587e-04  -1.360804e-03  0 
 3.900425e-04  -1.360503e-03  0 
 9.942559e-04  -1.408307e-03  0 
 1.932770e-03  -1.461014e-03  0 
VECTORS displacement_ITER22 FLOAT
 -4.474620e-04  -1.916579e-04  0 
 -1.888914e-03  -1.469668e-03  0 
 -4.116896e-04  -1.431028e-04  0 
 -6.235881e-05  -1.265628e-04  0 
 1.092543e-04  -1.384359e-04  0 
 4.555175e-04  -1.737157e-04  0 
 4.003184e-04  -2.205985e-04  0 
 -9.549908e-04  -1.417056e-03  0 
 -3.391588e-04  -1.360804e-03  0 
 3.900425e-04  -1.360503e-03  0 
 9.942560e-04  -1.408307e-03  0 
 1.932769e-03  -1.461014e-03  0 
VECTORS displacement_ITER23 FLOAT
 -4.474620e-04  -1.916579e-04  0 
 -1.888914e-03  -1.469668e-03  0 
 -4.116897e-04  -1.431028e-04  0 
 -6.235880e-05  -1.265628e-04  0 
 1.092543e-04  -1.384359e-04  0 
 4.555175e-04  -1.737158e-04  0 
 4.003184e-04  -2.205985e-04  0 
 -9.549908e-04  -1.417056e-03  0 
 -3.391588e-04  -1.360804e-03  0 
 3.900425e-04  -1.360503e-03  0 
 9.942560e-04  -1.408307e-03  0 
 1.932770e-03  -1.461014e-03  0 
VECTORS displacement_ITER24 FLOAT
 -4.474620e-04  -1.916579e-04  0 
 -1.888914e-03  -1.469668e-03  0 
 -4.116897e-04  -1.431028e-04  0 
 -6.235880e-05  -1.265628e-04  0 
 1.092543e-04  -1.384360e-04  0 
 4.555175e-04  -1.737158e-04  0 
 4.003184e-04  -2.205985e-04  0 
 -9.549908e-04  -1.417056e-03  0 
 -3.391588e-04  -1.360804e-03  0 
 3.900425e-04  -1.360503e-03  0 
 9.942560e-04  -1.408307e-03  0 
 1.932770e-03  -1.461014e-03  0 
VECTORS displacement_ITER25 FLOAT
 -4.474620e-04  -1.916579e-04  0 
 -1.888914e-03  -1.469668e-03  0 
 -4.116897e-04  -1.431028e-04  0 
 -6.235880e-05  -1.265628e-04  0 
 1.092543e-04  -1.384360e-04  0 
 4.555175e-04  -1.737158e-04  0 
 4.003184e-04  -2.205985e-04  0 
 -9.549909e-04  -1.417056e-03  0 
 -3.391588e-04  -1.360804e-03  0 
 3.900425e-04  -1.360503e-03  0 
 9.942560e-04  -1.408307e-03  0 
 1.932770e-03  -1.461014e-03  0 
CELL_DATA 5
TENSORS element_stresses FLOAT
 -2.097668e-01  -9.825005e-03  0 
 -9.825005e-03  -3.763824e-02  0 
 0  0  0 

 -8.412162e-01  -7.329778e-02  0 
 -7.329778e-02  -7.038344e-02  0 
 0  0  0 

 -5.154967e-04  -1.571324e-02  0 
 -1.571324e-02  -3.047728e-03  0 
 0  0  0 

 8.321032e-01  -6.189702e-02  0 
 -6.189702e-02  4.192184e-02  0 
 0  0  0 

 2.193953e-01  -2.051694e-02  0 
 -2.051694e-02  4.092113e-02  0 
 0  0  0 

TENSORS element_stresses FLOAT
 -2.097668e-01  -9.825005e-03  0 
 -9.825005e-03  -3.763824e-02  0 
 0  0  0 

 -8.412162e-01  -7.329778e-02  0 
 -7.329778e-02  -7.038344e-02  0 
 0  0  0 

 -5.154967e-04  -1.571324e-02  0 
 -1.571324e-02  -3.047728e-03  0 
 0  0  0 

 8.321032e-01  -6.189702e-02  0 
 -6.189702e-02  4.192184e-02  0 
 0  0  0 

 2.193953e-01  -2.051694e-02  0 
 -2.051694e-02  4.092113e-02  0 
 0  0  0 

