# vtk DataFile Version 3.1
this is an vtk file created by FEMAC
ASCII
DATASET UNSTRUCTURED_GRID
POINTS 12 FLOAT
4.500000 0.000000 0.000000
5.000000 0.000000 0.000000
4.500000 0.200000 0.000000
4.500000 0.400000 0.000000
4.500000 0.600000 0.000000
4.500000 0.800000 0.000000
4.500000 1.000000 0.000000
5.000000 0.200000 0.000000
5.000000 0.400000 0.000000
5.000000 0.600000 0.000000
5.000000 0.800000 0.000000
5.000000 1.000000 0.000000
CELLS 5 25 
4 0 1 7 2
4 2 7 8 3
4 3 8 9 4
4 4  9 10  5
4 5 10 11  6
CELL_TYPES 5
9 9 9 9 9 
POINT_DATA 12
VECTORS displacement_ITER1 FLOAT
 -5.202553e-03  -2.885714e-02  0 
 -5.544628e-03  -3.426671e-02  0 
 -3.177476e-03  -2.885282e-02  0 
 -1.038586e-03  -2.883952e-02  0 
 1.104084e-03  -2.883967e-02  0 
 3.242954e-03  -2.885302e-02  0 
 5.267204e-03  -2.885775e-02  0 
 -3.278842e-03  -3.428309e-02  0 
 -1.087178e-03  -3.428085e-02  0 
 1.152648e-03  -3.428101e-02  0 
 3.344331e-03  -3.428329e-02  0 
 5.610945e-03  -3.426733e-02  0 
VECTORS displacement_ITER2 FLOAT
 -5.089882e-03  -2.822742e-02  0 
 -5.405169e-03  -3.351953e-02  0 
 -3.089800e-03  -2.823139e-02  0 
 -1.015012e-03  -2.821866e-02  0 
 1.041126e-03  -2.821863e-02  0 
 3.115917e-03  -2.823135e-02  0 
 5.116290e-03  -2.822717e-02  0 
 -3.197481e-03  -3.350892e-02  0 
 -1.066001e-03  -3.350295e-02  0 
 1.092119e-03  -3.350292e-02  0 
 3.223596e-03  -3.350888e-02  0 
 5.430992e-03  -3.351927e-02  0 
VECTORS displacement_ITER3 FLOAT
 -5.003922e-03  -2.783883e-02  0 
 -5.303670e-03  -3.304622e-02  0 
 -3.023498e-03  -2.783822e-02  0 
 -9.862855e-04  -2.782527e-02  0 
 1.023090e-03  -2.782520e-02  0 
 3.060308e-03  -2.783813e-02  0 
 5.041226e-03  -2.783843e-02  0 
 -3.135041e-03  -3.302597e-02  0 
 -1.038542e-03  -3.301845e-02  0 
 1.075355e-03  -3.301838e-02  0 
 3.171848e-03  -3.302587e-02  0 
 5.339984e-03  -3.304582e-02  0 
VECTORS displacement_ITER4 FLOAT
 -4.980101e-03  -2.774254e-02  0 
 -5.277645e-03  -3.291476e-02  0 
 -3.011055e-03  -2.773266e-02  0 
 -9.814448e-04  -2.771910e-02  0 
 1.024697e-03  -2.771906e-02  0 
 3.054309e-03  -2.773260e-02  0 
 5.023580e-03  -2.774235e-02  0 
 -3.123045e-03  -3.290141e-02  0 
 -1.033623e-03  -3.289458e-02  0 
 1.076875e-03  -3.289455e-02  0 
 3.166300e-03  -3.290137e-02  0 
 5.320684e-03  -3.291458e-02  0 
VECTORS displacement_ITER5 FLOAT
 -4.970825e-03  -2.770331e-02  0 
 -5.267923e-03  -3.285942e-02  0 
 -3.007566e-03  -2.768893e-02  0 
 -9.809160e-04  -2.767517e-02  0 
 1.025270e-03  -2.767519e-02  0 
 3.051886e-03  -2.768896e-02  0 
 5.015079e-03  -2.770336e-02  0 
 -3.119553e-03  -3.285019e-02  0 
 -1.032894e-03  -3.284383e-02  0 
 1.077246e-03  -3.284378e-02  0 
 3.163871e-03  -3.285012e-02  0 
 5.312134e-03  -3.285930e-02  0 
VECTORS displacement_ITER6 FLOAT
 -4.967999e-03  -2.769268e-02  0 
 -5.265411e-03  -3.284587e-02  0 
 -3.006246e-03  -2.767827e-02  0 
 -9.807515e-04  -2.766462e-02  0 
 1.024826e-03  -2.766438e-02  0 
 3.050486e-03  -2.767798e-02  0 
 5.012891e-03  -2.769218e-02  0 
 -3.118139e-03  -3.283675e-02  0 
 -1.032569e-03  -3.283048e-02  0 
 1.076637e-03  -3.283064e-02  0 
 3.162403e-03  -3.283696e-02  0 
 5.309876e-03  -3.284623e-02  0 
VECTORS displacement_ITER7 FLOAT
 -4.967600e-03  -2.768361e-02  0 
 -5.264627e-03  -3.283887e-02  0 
 -3.004942e-03  -2.767080e-02  0 
 -9.799364e-04  -2.765748e-02  0 
 1.024808e-03  -2.765820e-02  0 
 3.049268e-03  -2.767167e-02  0 
 5.010126e-03  -2.768521e-02  0 
 -3.116761e-03  -3.282851e-02  0 
 -1.031528e-03  -3.282211e-02  0 
 1.076411e-03  -3.282152e-02  0 
 3.161039e-03  -3.282781e-02  0 
 5.308163e-03  -3.283770e-02  0 
VECTORS displacement_ITER8 FLOAT
 -4.965678e-03  -2.768306e-02  0 
 -5.263881e-03  -3.283549e-02  0 
 -3.004991e-03  -2.766975e-02  0 
 -9.807494e-04  -2.765633e-02  0 
 1.024045e-03  -2.765536e-02  0 
 3.049059e-03  -2.766863e-02  0 
 5.011740e-03  -2.768101e-02  0 
 -3.116717e-03  -3.282549e-02  0 
 -1.032224e-03  -3.281919e-02  0 
 1.075515e-03  -3.282005e-02  0 
 3.160817e-03  -3.282648e-02  0 
 5.309285e-03  -3.283726e-02  0 
VECTORS displacement_ITER9 FLOAT
 -4.968018e-03  -2.767943e-02  0 
 -5.266661e-03  -3.283676e-02  0 
 -3.005535e-03  -2.766709e-02  0 
 -9.801849e-04  -2.765378e-02  0 
 1.025290e-03  -2.765499e-02  0 
 3.049591e-03  -2.766843e-02  0 
 5.010173e-03  -2.768193e-02  0 
 -3.117205e-03  -3.282589e-02  0 
 -1.031478e-03  -3.281946e-02  0 
 1.076581e-03  -3.281823e-02  0 
 3.161278e-03  -3.282451e-02  0 
 5.308479e-03  -3.283416e-02  0 
VECTORS displacement_ITER10 FLOAT
 -4.967538e-03  -2.768120e-02  0 
 -5.265926e-03  -3.283591e-02  0 
 -3.005953e-03  -2.766814e-02  0 
 -9.810369e-04  -2.765474e-02  0 
 1.024776e-03  -2.765469e-02  0 
 3.049797e-03  -2.766809e-02  0 
 5.011276e-03  -2.768108e-02  0 
 -3.117629e-03  -3.282587e-02  0 
 -1.032258e-03  -3.281954e-02  0 
 1.076004e-03  -3.281969e-02  0 
 3.161444e-03  -3.282605e-02  0 
 5.310220e-03  -3.283628e-02  0 
VECTORS displacement_ITER11 FLOAT
 -4.967491e-03  -2.768240e-02  0 
 -5.266179e-03  -3.283707e-02  0 
 -3.006039e-03  -2.766923e-02  0 
 -9.810861e-04  -2.765581e-02  0 
 1.024811e-03  -2.765560e-02  0 
 3.049931e-03  -2.766900e-02  0 
 5.011745e-03  -2.768196e-02  0 
 -3.117703e-03  -3.282705e-02  0 
 -1.032295e-03  -3.282072e-02  0 
 1.076020e-03  -3.282091e-02  0 
 3.161598e-03  -3.282726e-02  0 
 5.310336e-03  -3.283746e-02  0 
VECTORS displacement_ITER12 FLOAT
 -4.967689e-03  -2.768272e-02  0 
 -5.266321e-03  -3.283791e-02  0 
 -3.005992e-03  -2.766966e-02  0 
 -9.809376e-04  -2.765626e-02  0 
 1.024946e-03  -2.765627e-02  0 
 3.049980e-03  -2.766967e-02  0 
 5.011705e-03  -2.768274e-02  0 
 -3.117664e-03  -3.282776e-02  0 
 -1.032146e-03  -3.282142e-02  0 
 1.076154e-03  -3.282139e-02  0 
 3.161658e-03  -3.282772e-02  0 
 5.310208e-03  -3.283782e-02  0 
VECTORS displacement_ITER13 FLOAT
 -4.967733e-03  -2.768290e-02  0 
 -5.266194e-03  -3.283809e-02  0 
 -3.005933e-03  -2.766987e-02  0 
 -9.808932e-04  -2.765647e-02  0 
 1.024944e-03  -2.765651e-02  0 
 3.049950e-03  -2.766991e-02  0 
 5.011675e-03  -2.768299e-02  0 
 -3.117621e-03  -3.282794e-02  0 
 -1.032106e-03  -3.282161e-02  0 
 1.076158e-03  -3.282157e-02  0 
 3.161637e-03  -3.282790e-02  0 
 5.310167e-03  -3.283802e-02  0 
VECTORS displacement_ITER14 FLOAT
 -4.967685e-03  -2.768300e-02  0 
 -5.266069e-03  -3.283802e-02  0 
 -3.005899e-03  -2.766993e-02  0 
 -9.809028e-04  -2.765653e-02  0 
 1.024900e-03  -2.765653e-02  0 
 3.049902e-03  -2.766992e-02  0 
 5.011684e-03  -2.768299e-02  0 
 -3.117597e-03  -3.282790e-02  0 
 -1.032121e-03  -3.282156e-02  0 
 1.076119e-03  -3.282157e-02  0 
 3.161599e-03  -3.282791e-02  0 
 5.310109e-03  -3.283806e-02  0 
VECTORS displacement_ITER15 FLOAT
 -4.967668e-03  -2.768295e-02  0 
 -5.266054e-03  -3.283795e-02  0 
 -3.005889e-03  -2.766987e-02  0 
 -9.809012e-04  -2.765647e-02  0 
 1.024897e-03  -2.765647e-02  0 
 3.049889e-03  -2.766987e-02  0 
 5.011667e-03  -2.768295e-02  0 
 -3.117590e-03  -3.282783e-02  0 
 -1.032121e-03  -3.282149e-02  0 
 1.076117e-03  -3.282150e-02  0 
 3.161589e-03  -3.282783e-02  0 
 5.310058e-03  -3.283795e-02  0 
VECTORS displacement_ITER16 FLOAT
 -4.967662e-03  -2.768293e-02  0 
 -5.266055e-03  -3.283793e-02  0 
 -3.005887e-03  -2.766985e-02  0 
 -9.808993e-04  -2.765645e-02  0 
 1.024899e-03  -2.765645e-02  0 
 3.049885e-03  -2.766985e-02  0 
 5.011662e-03  -2.768293e-02  0 
 -3.117588e-03  -3.282781e-02  0 
 -1.032119e-03  -3.282147e-02  0 
 1.076119e-03  -3.282147e-02  0 
 3.161586e-03  -3.282781e-02  0 
 5.310049e-03  -3.283793e-02  0 
VECTORS displacement_ITER17 FLOAT
 -4.967660e-03  -2.768293e-02  0 
 -5.266054e-03  -3.283793e-02  0 
 -3.005886e-03  -2.766985e-02  0 
 -9.808994e-04  -2.765645e-02  0 
 1.024898e-03  -2.765645e-02  0 
 3.049885e-03  -2.766985e-02  0 
 5.011662e-03  -2.768293e-02  0 
 -3.117587e-03  -3.282780e-02  0 
 -1.032119e-03  -3.282147e-02  0 
 1.076118e-03  -3.282146e-02  0 
 3.161586e-03  -3.282780e-02  0 
 5.310051e-03  -3.283793e-02  0 
VECTORS displacement_ITER18 FLOAT
 -4.967662e-03  -2.768293e-02  0 
 -5.266054e-03  -3.283793e-02  0 
 -3.005887e-03  -2.766985e-02  0 
 -9.808998e-04  -2.765645e-02  0 
 1.024898e-03  -2.765645e-02  0 
 3.049886e-03  -2.766985e-02  0 
 5.011661e-03  -2.768293e-02  0 
 -3.117587e-03  -3.282780e-02  0 
 -1.032119e-03  -3.282147e-02  0 
 1.076118e-03  -3.282147e-02  0 
 3.161586e-03  -3.282781e-02  0 
 5.310053e-03  -3.283793e-02  0 
VECTORS displacement_ITER19 FLOAT
 -4.967661e-03  -2.768293e-02  0 
 -5.266055e-03  -3.283793e-02  0 
 -3.005887e-03  -2.766985e-02  0 
 -9.808998e-04  -2.765645e-02  0 
 1.024898e-03  -2.765645e-02  0 
 3.049886e-03  -2.766985e-02  0 
 5.011661e-03  -2.768293e-02  0 
 -3.117588e-03  -3.282781e-02  0 
 -1.032119e-03  -3.282147e-02  0 
 1.076118e-03  -3.282147e-02  0 
 3.161586e-03  -3.282781e-02  0 
 5.310053e-03  -3.283793e-02  0 
VECTORS displacement_ITER20 FLOAT
 -4.967661e-03  -2.768293e-02  0 
 -5.266055e-03  -3.283793e-02  0 
 -3.005887e-03  -2.766985e-02  0 
 -9.808997e-04  -2.765645e-02  0 
 1.024898e-03  -2.765645e-02  0 
 3.049886e-03  -2.766985e-02  0 
 5.011662e-03  -2.768293e-02  0 
 -3.117587e-03  -3.282781e-02  0 
 -1.032119e-03  -3.282147e-02  0 
 1.076118e-03  -3.282147e-02  0 
 3.161586e-03  -3.282781e-02  0 
 5.310054e-03  -3.283793e-02  0 
VECTORS displacement_ITER21 FLOAT
 -4.967661e-03  -2.768293e-02  0 
 -5.266055e-03  -3.283793e-02  0 
 -3.005887e-03  -2.766985e-02  0 
 -9.808997e-04  -2.765645e-02  0 
 1.024898e-03  -2.765645e-02  0 
 3.049886e-03  -2.766985e-02  0 
 5.011662e-03  -2.768293e-02  0 
 -3.117587e-03  -3.282781e-02  0 
 -1.032119e-03  -3.282147e-02  0 
 1.076118e-03  -3.282147e-02  0 
 3.161586e-03  -3.282781e-02  0 
 5.310054e-03  -3.283793e-02  0 
VECTORS displacement_ITER22 FLOAT
 -4.967661e-03  -2.768293e-02  0 
 -5.266055e-03  -3.283793e-02  0 
 -3.005887e-03  -2.766985e-02  0 
 -9.808997e-04  -2.765645e-02  0 
 1.024898e-03  -2.765645e-02  0 
 3.049886e-03  -2.766985e-02  0 
 5.011662e-03  -2.768293e-02  0 
 -3.117588e-03  -3.282781e-02  0 
 -1.032119e-03  -3.282147e-02  0 
 1.076118e-03  -3.282147e-02  0 
 3.161586e-03  -3.282781e-02  0 
 5.310054e-03  -3.283793e-02  0 
VECTORS displacement_ITER23 FLOAT
 -4.967661e-03  -2.768293e-02  0 
 -5.266055e-03  -3.283793e-02  0 
 -3.005887e-03  -2.766985e-02  0 
 -9.808997e-04  -2.765645e-02  0 
 1.024898e-03  -2.765645e-02  0 
 3.049886e-03  -2.766985e-02  0 
 5.011662e-03  -2.768293e-02  0 
 -3.117588e-03  -3.282781e-02  0 
 -1.032119e-03  -3.282147e-02  0 
 1.076118e-03  -3.282147e-02  0 
 3.161586e-03  -3.282781e-02  0 
 5.310054e-03  -3.283793e-02  0 
VECTORS displacement_ITER24 FLOAT
 -4.967661e-03  -2.768293e-02  0 
 -5.266055e-03  -3.283793e-02  0 
 -3.005887e-03  -2.766985e-02  0 
 -9.808997e-04  -2.765645e-02  0 
 1.024898e-03  -2.765645e-02  0 
 3.049886e-03  -2.766985e-02  0 
 5.011662e-03  -2.768293e-02  0 
 -3.117588e-03  -3.282781e-02  0 
 -1.032119e-03  -3.282147e-02  0 
 1.076118e-03  -3.282147e-02  0 
 3.161586e-03  -3.282781e-02  0 
 5.310054e-03  -3.283793e-02  0 
VECTORS displacement_ITER25 FLOAT
 -4.967661e-03  -2.768293e-02  0 
 -5.266055e-03  -3.283793e-02  0 
 -3.005887e-03  -2.766985e-02  0 
 -9.808997e-04  -2.765645e-02  0 
 1.024898e-03  -2.765645e-02  0 
 3.049886e-03  -2.766985e-02  0 
 5.011662e-03  -2.768293e-02  0 
 -3.117588e-03  -3.282781e-02  0 
 -1.032119e-03  -3.282147e-02  0 
 1.076118e-03  -3.282147e-02  0 
 3.161586e-03  -3.282781e-02  0 
 5.310054e-03  -3.283793e-02  0 
CELL_DATA 5
TENSORS element_stresses FLOAT
 -4.315294e-02  -2.873156e-03  0 
 -2.873156e-03  -7.145132e-03  0 
 0  0  0 

 -1.627657e-01  -3.602374e-02  0 
 -3.602374e-02  5.151629e-04  0 
 0  0  0 

 4.150874e-09  -3.457077e-03  0 
 -3.457077e-03  -1.124739e-07  0 
 0  0  0 

 1.627659e-01  -3.602313e-02  0 
 -3.602313e-02  -5.153539e-04  0 
 0  0  0 

 4.315275e-02  -2.872899e-03  0 
 -2.872899e-03  7.145078e-03  0 
 0  0  0 

TENSORS element_stresses FLOAT
 -4.315294e-02  -2.873156e-03  0 
 -2.873156e-03  -7.145132e-03  0 
 0  0  0 

 -1.627657e-01  -3.602374e-02  0 
 -3.602374e-02  5.151629e-04  0 
 0  0  0 

 4.150874e-09  -3.457077e-03  0 
 -3.457077e-03  -1.124739e-07  0 
 0  0  0 

 1.627659e-01  -3.602313e-02  0 
 -3.602313e-02  -5.153539e-04  0 
 0  0  0 

 4.315275e-02  -2.872899e-03  0 
 -2.872899e-03  7.145078e-03  0 
 0  0  0 

