# vtk DataFile Version 3.1
this is an vtk file created by FEMAC
ASCII
DATASET UNSTRUCTURED_GRID
POINTS 12 FLOAT
7.500000 0.000000 0.000000
8.000000 0.000000 0.000000
7.500000 0.200000 0.000000
7.500000 0.400000 0.000000
7.500000 0.600000 0.000000
7.500000 0.800000 0.000000
7.500000 1.000000 0.000000
8.000000 0.200000 0.000000
8.000000 0.400000 0.000000
8.000000 0.600000 0.000000
8.000000 0.800000 0.000000
8.000000 1.000000 0.000000
CELLS 5 25 
4 0 1 7 2
4 2 7 8 3
4 3 8 9 4
4 4  9 10  5
4 5 10 11  6
CELL_TYPES 5
9 9 9 9 9 
POINT_DATA 12
VECTORS displacement_ITER1 FLOAT
 -5.816626e-03  -6.311856e-02  0 
 -5.833622e-03  -6.896671e-02  0 
 -3.487592e-03  -6.310785e-02  0 
 -1.144163e-03  -6.310590e-02  0 
 1.211639e-03  -6.310645e-02  0 
 3.554626e-03  -6.310853e-02  0 
 5.882316e-03  -6.312004e-02  0 
 -3.487889e-03  -6.897075e-02  0 
 -1.140903e-03  -6.897216e-02  0 
 1.208365e-03  -6.897176e-02  0 
 3.554929e-03  -6.897027e-02  0 
 5.900146e-03  -6.896584e-02  0 
VECTORS displacement_ITER2 FLOAT
 -5.661959e-03  -6.149920e-02  0 
 -5.666006e-03  -6.718087e-02  0 
 -3.392646e-03  -6.150150e-02  0 
 -1.123827e-03  -6.150087e-02  0 
 1.148661e-03  -6.150004e-02  0 
 3.418055e-03  -6.150057e-02  0 
 5.689155e-03  -6.149713e-02  0 
 -3.394154e-03  -6.717847e-02  0 
 -1.122444e-03  -6.717873e-02  0 
 1.147277e-03  -6.717925e-02  0 
 3.419581e-03  -6.717907e-02  0 
 5.692133e-03  -6.718202e-02  0 
VECTORS displacement_ITER3 FLOAT
 -5.554592e-03  -6.051218e-02  0 
 -5.552178e-03  -6.609495e-02  0 
 -3.320961e-03  -6.051968e-02  0 
 -1.094985e-03  -6.051956e-02  0 
 1.130566e-03  -6.051920e-02  0 
 3.356806e-03  -6.051926e-02  0 
 5.591201e-03  -6.051114e-02  0 
 -3.323104e-03  -6.608989e-02  0 
 -1.094436e-03  -6.608965e-02  0 
 1.130019e-03  -6.608988e-02  0 
 3.358941e-03  -6.609016e-02  0 
 5.588369e-03  -6.609550e-02  0 
VECTORS displacement_ITER4 FLOAT
 -5.529960e-03  -6.027930e-02  0 
 -5.529786e-03  -6.583749e-02  0 
 -3.306771e-03  -6.028298e-02  0 
 -1.088364e-03  -6.028249e-02  0 
 1.131269e-03  -6.028253e-02  0 
 3.349652e-03  -6.028302e-02  0 
 5.572756e-03  -6.027935e-02  0 
 -3.308799e-03  -6.583422e-02  0 
 -1.087484e-03  -6.583423e-02  0 
 1.130387e-03  -6.583421e-02  0 
 3.351675e-03  -6.583419e-02  0 
 5.572647e-03  -6.583745e-02  0 
VECTORS displacement_ITER5 FLOAT
 -5.520977e-03  -6.018704e-02  0 
 -5.522848e-03  -6.573396e-02  0 
 -3.302929e-03  -6.018747e-02  0 
 -1.087098e-03  -6.018671e-02  0 
 1.131392e-03  -6.018677e-02  0 
 3.347180e-03  -6.018753e-02  0 
 5.565089e-03  -6.018721e-02  0 
 -3.304843e-03  -6.573223e-02  0 
 -1.085937e-03  -6.573244e-02  0 
 1.130229e-03  -6.573240e-02  0 
 3.349093e-03  -6.573219e-02  0 
 5.567042e-03  -6.573387e-02  0 
VECTORS displacement_ITER6 FLOAT
 -5.518524e-03  -6.016303e-02  0 
 -5.520973e-03  -6.570643e-02  0 
 -3.302000e-03  -6.016235e-02  0 
 -1.086942e-03  -6.016156e-02  0 
 1.131184e-03  -6.016154e-02  0 
 3.346252e-03  -6.016233e-02  0 
 5.562800e-03  -6.016303e-02  0 
 -3.303885e-03  -6.570522e-02  0 
 -1.085699e-03  -6.570547e-02  0 
 1.129940e-03  -6.570547e-02  0 
 3.348138e-03  -6.570523e-02  0 
 5.565232e-03  -6.570644e-02  0 
VECTORS displacement_ITER7 FLOAT
 -5.517266e-03  -6.014864e-02  0 
 -5.519786e-03  -6.569044e-02  0 
 -3.301330e-03  -6.014763e-02  0 
 -1.086749e-03  -6.014688e-02  0 
 1.131003e-03  -6.014684e-02  0 
 3.345611e-03  -6.014759e-02  0 
 5.561631e-03  -6.014856e-02  0 
 -3.303213e-03  -6.568938e-02  0 
 -1.085474e-03  -6.568961e-02  0 
 1.129729e-03  -6.568963e-02  0 
 3.347494e-03  -6.568941e-02  0 
 5.564097e-03  -6.569049e-02  0 
VECTORS displacement_ITER8 FLOAT
 -5.517821e-03  -6.014762e-02  0 
 -5.520096e-03  -6.569032e-02  0 
 -3.301463e-03  -6.014703e-02  0 
 -1.086787e-03  -6.014632e-02  0 
 1.130974e-03  -6.014633e-02  0 
 3.345649e-03  -6.014704e-02  0 
 5.562013e-03  -6.014762e-02  0 
 -3.303355e-03  -6.568906e-02  0 
 -1.085520e-03  -6.568927e-02  0 
 1.129707e-03  -6.568927e-02  0 
 3.347541e-03  -6.568906e-02  0 
 5.564282e-03  -6.569033e-02  0 
VECTORS displacement_ITER9 FLOAT
 -5.519529e-03  -6.015215e-02  0 
 -5.521450e-03  -6.569709e-02  0 
 -3.302225e-03  -6.015229e-02  0 
 -1.087101e-03  -6.015162e-02  0 
 1.131022e-03  -6.015166e-02  0 
 3.346122e-03  -6.015233e-02  0 
 5.563357e-03  -6.015222e-02  0 
 -3.304131e-03  -6.569549e-02  0 
 -1.085840e-03  -6.569568e-02  0 
 1.129762e-03  -6.569565e-02  0 
 3.348027e-03  -6.569547e-02  0 
 5.565320e-03  -6.569705e-02  0 
VECTORS displacement_ITER10 FLOAT
 -5.520086e-03  -6.015549e-02  0 
 -5.522033e-03  -6.570091e-02  0 
 -3.302602e-03  -6.015561e-02  0 
 -1.087279e-03  -6.015493e-02  0 
 1.131119e-03  -6.015493e-02  0 
 3.346442e-03  -6.015561e-02  0 
 5.563933e-03  -6.015548e-02  0 
 -3.304510e-03  -6.569932e-02  0 
 -1.086004e-03  -6.569951e-02  0 
 1.129844e-03  -6.569951e-02  0 
 3.348350e-03  -6.569932e-02  0 
 5.565873e-03  -6.570091e-02  0 
VECTORS displacement_ITER11 FLOAT
 -5.520093e-03  -6.015735e-02  0 
 -5.522126e-03  -6.570254e-02  0 
 -3.302682e-03  -6.015720e-02  0 
 -1.087303e-03  -6.015650e-02  0 
 1.131245e-03  -6.015652e-02  0 
 3.346611e-03  -6.015723e-02  0 
 5.563962e-03  -6.015739e-02  0 
 -3.304591e-03  -6.570107e-02  0 
 -1.086009e-03  -6.570127e-02  0 
 1.129951e-03  -6.570126e-02  0 
 3.348518e-03  -6.570105e-02  0 
 5.566041e-03  -6.570251e-02  0 
VECTORS displacement_ITER12 FLOAT
 -5.519883e-03  -6.015782e-02  0 
 -5.522009e-03  -6.570267e-02  0 
 -3.302635e-03  -6.015752e-02  0 
 -1.087302e-03  -6.015681e-02  0 
 1.131258e-03  -6.015677e-02  0 
 3.346618e-03  -6.015748e-02  0 
 5.563960e-03  -6.015774e-02  0 
 -3.304543e-03  -6.570127e-02  0 
 -1.086001e-03  -6.570148e-02  0 
 1.129957e-03  -6.570151e-02  0 
 3.348528e-03  -6.570130e-02  0 
 5.566022e-03  -6.570271e-02  0 
VECTORS displacement_ITER13 FLOAT
 -5.519829e-03  -6.015731e-02  0 
 -5.521861e-03  -6.570214e-02  0 
 -3.302518e-03  -6.015704e-02  0 
 -1.087219e-03  -6.015634e-02  0 
 1.131272e-03  -6.015639e-02  0 
 3.346535e-03  -6.015710e-02  0 
 5.563720e-03  -6.015743e-02  0 
 -3.304432e-03  -6.570072e-02  0 
 -1.085918e-03  -6.570092e-02  0 
 1.129972e-03  -6.570089e-02  0 
 3.348446e-03  -6.570068e-02  0 
 5.565836e-03  -6.570207e-02  0 
VECTORS displacement_ITER14 FLOAT
 -5.519628e-03  -6.015682e-02  0 
 -5.521690e-03  -6.570141e-02  0 
 -3.302431e-03  -6.015654e-02  0 
 -1.087217e-03  -6.015583e-02  0 
 1.131204e-03  -6.015581e-02  0 
 3.346435e-03  -6.015651e-02  0 
 5.563686e-03  -6.015677e-02  0 
 -3.304346e-03  -6.570000e-02  0 
 -1.085919e-03  -6.570021e-02  0 
 1.129905e-03  -6.570022e-02  0 
 3.348351e-03  -6.570002e-02  0 
 5.565713e-03  -6.570144e-02  0 
VECTORS displacement_ITER15 FLOAT
 -5.519635e-03  -6.015656e-02  0 
 -5.521670e-03  -6.570118e-02  0 
 -3.302410e-03  -6.015630e-02  0 
 -1.087199e-03  -6.015560e-02  0 
 1.131206e-03  -6.015561e-02  0 
 3.346411e-03  -6.015631e-02  0 
 5.563618e-03  -6.015658e-02  0 
 -3.304325e-03  -6.569976e-02  0 
 -1.085901e-03  -6.569997e-02  0 
 1.129908e-03  -6.569996e-02  0 
 3.348326e-03  -6.569976e-02  0 
 5.565664e-03  -6.570117e-02  0 
VECTORS displacement_ITER16 FLOAT
 -5.519621e-03  -6.015655e-02  0 
 -5.521672e-03  -6.570115e-02  0 
 -3.302417e-03  -6.015628e-02  0 
 -1.087210e-03  -6.015558e-02  0 
 1.131202e-03  -6.015557e-02  0 
 3.346414e-03  -6.015627e-02  0 
 5.563630e-03  -6.015654e-02  0 
 -3.304332e-03  -6.569973e-02  0 
 -1.085911e-03  -6.569994e-02  0 
 1.129902e-03  -6.569994e-02  0 
 3.348328e-03  -6.569974e-02  0 
 5.565674e-03  -6.570115e-02  0 
VECTORS displacement_ITER17 FLOAT
 -5.519630e-03  -6.015654e-02  0 
 -5.521679e-03  -6.570116e-02  0 
 -3.302420e-03  -6.015628e-02  0 
 -1.087208e-03  -6.015558e-02  0 
 1.131208e-03  -6.015558e-02  0 
 3.346419e-03  -6.015628e-02  0 
 5.563626e-03  -6.015655e-02  0 
 -3.304334e-03  -6.569974e-02  0 
 -1.085908e-03  -6.569995e-02  0 
 1.129908e-03  -6.569994e-02  0 
 3.348333e-03  -6.569974e-02  0 
 5.565677e-03  -6.570115e-02  0 
VECTORS displacement_ITER18 FLOAT
 -5.519631e-03  -6.015655e-02  0 
 -5.521681e-03  -6.570117e-02  0 
 -3.302421e-03  -6.015629e-02  0 
 -1.087209e-03  -6.015559e-02  0 
 1.131207e-03  -6.015559e-02  0 
 3.346419e-03  -6.015629e-02  0 
 5.563630e-03  -6.015655e-02  0 
 -3.304335e-03  -6.569975e-02  0 
 -1.085909e-03  -6.569996e-02  0 
 1.129908e-03  -6.569996e-02  0 
 3.348334e-03  -6.569975e-02  0 
 5.565680e-03  -6.570117e-02  0 
VECTORS displacement_ITER19 FLOAT
 -5.519631e-03  -6.015656e-02  0 
 -5.521681e-03  -6.570117e-02  0 
 -3.302421e-03  -6.015629e-02  0 
 -1.087209e-03  -6.015559e-02  0 
 1.131208e-03  -6.015559e-02  0 
 3.346420e-03  -6.015629e-02  0 
 5.563631e-03  -6.015656e-02  0 
 -3.304335e-03  -6.569976e-02  0 
 -1.085909e-03  -6.569996e-02  0 
 1.129908e-03  -6.569996e-02  0 
 3.348334e-03  -6.569976e-02  0 
 5.565681e-03  -6.570117e-02  0 
VECTORS displacement_ITER20 FLOAT
 -5.519631e-03  -6.015656e-02  0 
 -5.521681e-03  -6.570117e-02  0 
 -3.302421e-03  -6.015629e-02  0 
 -1.087209e-03  -6.015559e-02  0 
 1.131208e-03  -6.015559e-02  0 
 3.346420e-03  -6.015629e-02  0 
 5.563630e-03  -6.015656e-02  0 
 -3.304335e-03  -6.569976e-02  0 
 -1.085909e-03  -6.569996e-02  0 
 1.129908e-03  -6.569996e-02  0 
 3.348334e-03  -6.569976e-02  0 
 5.565681e-03  -6.570117e-02  0 
VECTORS displacement_ITER21 FLOAT
 -5.519631e-03  -6.015656e-02  0 
 -5.521681e-03  -6.570117e-02  0 
 -3.302421e-03  -6.015629e-02  0 
 -1.087209e-03  -6.015559e-02  0 
 1.131208e-03  -6.015559e-02  0 
 3.346420e-03  -6.015629e-02  0 
 5.563630e-03  -6.015656e-02  0 
 -3.304335e-03  -6.569976e-02  0 
 -1.085909e-03  -6.569996e-02  0 
 1.129908e-03  -6.569996e-02  0 
 3.348334e-03  -6.569976e-02  0 
 5.565680e-03  -6.570117e-02  0 
VECTORS displacement_ITER22 FLOAT
 -5.519631e-03  -6.015656e-02  0 
 -5.521681e-03  -6.570117e-02  0 
 -3.302421e-03  -6.015629e-02  0 
 -1.087209e-03  -6.015559e-02  0 
 1.131208e-03  -6.015559e-02  0 
 3.346420e-03  -6.015629e-02  0 
 5.563630e-03  -6.015656e-02  0 
 -3.304335e-03  -6.569976e-02  0 
 -1.085909e-03  -6.569996e-02  0 
 1.129908e-03  -6.569996e-02  0 
 3.348334e-03  -6.569976e-02  0 
 5.565680e-03  -6.570117e-02  0 
VECTORS displacement_ITER23 FLOAT
 -5.519631e-03  -6.015656e-02  0 
 -5.521681e-03  -6.570117e-02  0 
 -3.302421e-03  -6.015629e-02  0 
 -1.087209e-03  -6.015559e-02  0 
 1.131208e-03  -6.015559e-02  0 
 3.346420e-03  -6.015629e-02  0 
 5.563630e-03  -6.015656e-02  0 
 -3.304335e-03  -6.569976e-02  0 
 -1.085909e-03  -6.569996e-02  0 
 1.129908e-03  -6.569996e-02  0 
 3.348334e-03  -6.569976e-02  0 
 5.565680e-03  -6.570117e-02  0 
VECTORS displacement_ITER24 FLOAT
 -5.519631e-03  -6.015656e-02  0 
 -5.521681e-03  -6.570117e-02  0 
 -3.302421e-03  -6.015629e-02  0 
 -1.087209e-03  -6.015559e-02  0 
 1.131208e-03  -6.015559e-02  0 
 3.346420e-03  -6.015629e-02  0 
 5.563630e-03  -6.015656e-02  0 
 -3.304335e-03  -6.569976e-02  0 
 -1.085909e-03  -6.569996e-02  0 
 1.129908e-03  -6.569996e-02  0 
 3.348334e-03  -6.569976e-02  0 
 5.565680e-03  -6.570117e-02  0 
VECTORS displacement_ITER25 FLOAT
 -5.519631e-03  -6.015656e-02  0 
 -5.521681e-03  -6.570117e-02  0 
 -3.302421e-03  -6.015629e-02  0 
 -1.087209e-03  -6.015559e-02  0 
 1.131208e-03  -6.015559e-02  0 
 3.346420e-03  -6.015629e-02  0 
 5.563630e-03  -6.015656e-02  0 
 -3.304335e-03  -6.569976e-02  0 
 -1.085909e-03  -6.569996e-02  0 
 1.129908e-03  -6.569996e-02  0 
 3.348334e-03  -6.569976e-02  0 
 5.565680e-03  -6.570117e-02  0 
CELL_DATA 5
TENSORS element_stresses FLOAT
 -2.972006e-04  -1.295553e-04  0 
 -1.295553e-04  3.307020e-04  0 
 0  0  0 

 -2.624333e-04  -2.873954e-03  0 
 -2.873954e-03  1.173565e-03  0 
 0  0  0 

 -6.705658e-11  -2.429800e-04  0 
 -2.429800e-04  -2.437162e-11  0 
 0  0  0 

 2.624330e-04  -2.873955e-03  0 
 -2.873955e-03  -1.173564e-03  0 
 0  0  0 

 2.972010e-04  -1.295559e-04  0 
 -1.295559e-04  -3.307027e-04  0 
 0  0  0 

TENSORS element_stresses FLOAT
 -2.972006e-04  -1.295553e-04  0 
 -1.295553e-04  3.307020e-04  0 
 0  0  0 

 -2.624333e-04  -2.873954e-03  0 
 -2.873954e-03  1.173565e-03  0 
 0  0  0 

 -6.705658e-11  -2.429800e-04  0 
 -2.429800e-04  -2.437162e-11  0 
 0  0  0 

 2.624330e-04  -2.873955e-03  0 
 -2.873955e-03  -1.173564e-03  0 
 0  0  0 

 2.972010e-04  -1.295559e-04  0 
 -1.295559e-04  -3.307027e-04  0 
 0  0  0 

