# vtk DataFile Version 3.1
this is an vtk file created by FEMAC
ASCII
DATASET UNSTRUCTURED_GRID
POINTS 12 FLOAT
3.000000 0.000000 0.000000
3.500000 0.000000 0.000000
3.000000 0.200000 0.000000
3.000000 0.400000 0.000000
3.000000 0.600000 0.000000
3.000000 0.800000 0.000000
3.000000 1.000000 0.000000
3.500000 0.200000 0.000000
3.500000 0.400000 0.000000
3.500000 0.600000 0.000000
3.500000 0.800000 0.000000
3.500000 1.000000 0.000000
CELLS 5 25 
4 0 1 7 2
4 2 7 8 3
4 3 8 9 4
4 4  9 10  5
4 5 10 11  6
CELL_TYPES 5
9 9 9 9 9 
POINT_DATA 12
VECTORS displacement_ITER1 FLOAT
 -4.443471e-03  -1.412792e-02  0 
 -4.586629e-03  -1.873037e-02  0 
 -2.566573e-03  -1.409696e-02  0 
 -8.493933e-04  -1.407574e-02  0 
 9.141910e-04  -1.407571e-02  0 
 2.631333e-03  -1.409650e-02  0 
 4.508140e-03  -1.412743e-02  0 
 -2.781895e-03  -1.870560e-02  0 
 -8.931898e-04  -1.864760e-02  0 
 9.578353e-04  -1.864758e-02  0 
 2.846578e-03  -1.870514e-02  0 
 4.651403e-03  -1.872988e-02  0 
VECTORS displacement_ITER2 FLOAT
 -4.344690e-03  -1.388936e-02  0 
 -4.482566e-03  -1.836193e-02  0 
 -2.515501e-03  -1.386092e-02  0 
 -8.486776e-04  -1.384278e-02  0 
 8.750435e-04  -1.384279e-02  0 
 2.541864e-03  -1.386106e-02  0 
 4.371085e-03  -1.388952e-02  0 
 -2.737153e-03  -1.833807e-02  0 
 -8.921949e-04  -1.830855e-02  0 
 9.185949e-04  -1.830855e-02  0 
 2.763556e-03  -1.833821e-02  0 
 4.508936e-03  -1.836209e-02  0 
VECTORS displacement_ITER3 FLOAT
 -4.269264e-03  -1.373270e-02  0 
 -4.403612e-03  -1.812707e-02  0 
 -2.468058e-03  -1.370555e-02  0 
 -8.312827e-04  -1.368762e-02  0 
 8.686255e-04  -1.368765e-02  0 
 2.505260e-03  -1.370590e-02  0 
 4.306454e-03  -1.373308e-02  0 
 -2.693703e-03  -1.810453e-02  0 
 -8.746881e-04  -1.809126e-02  0 
 9.120743e-04  -1.809125e-02  0 
 2.730988e-03  -1.810470e-02  0 
 4.440763e-03  -1.812727e-02  0 
VECTORS displacement_ITER4 FLOAT
 -4.250195e-03  -1.368858e-02  0 
 -4.383877e-03  -1.806617e-02  0 
 -2.454337e-03  -1.366111e-02  0 
 -8.245481e-04  -1.364203e-02  0 
 8.684673e-04  -1.364201e-02  0 
 2.497974e-03  -1.366129e-02  0 
 4.293735e-03  -1.368874e-02  0 
 -2.680972e-03  -1.804436e-02  0 
 -8.680981e-04  -1.802993e-02  0 
 9.119187e-04  -1.802991e-02  0 
 2.724668e-03  -1.804440e-02  0 
 4.427446e-03  -1.806621e-02  0 
VECTORS displacement_ITER5 FLOAT
 -4.243581e-03  -1.367056e-02  0 
 -4.377155e-03  -1.804240e-02  0 
 -2.449604e-03  -1.364294e-02  0 
 -8.229316e-04  -1.362328e-02  0 
 8.665625e-04  -1.362342e-02  0 
 2.493168e-03  -1.364321e-02  0 
 4.287279e-03  -1.367094e-02  0 
 -2.676648e-03  -1.802088e-02  0 
 -8.664109e-04  -1.800340e-02  0 
 9.101521e-04  -1.800338e-02  0 
 2.720323e-03  -1.802089e-02  0 
 4.420789e-03  -1.804241e-02  0 
VECTORS displacement_ITER6 FLOAT
 -4.240842e-03  -1.366667e-02  0 
 -4.374366e-03  -1.803707e-02  0 
 -2.447101e-03  -1.363897e-02  0 
 -8.214100e-04  -1.361929e-02  0 
 8.666874e-04  -1.361924e-02  0 
 2.492218e-03  -1.363898e-02  0 
 4.285792e-03  -1.366660e-02  0 
 -2.674356e-03  -1.801554e-02  0 
 -8.649535e-04  -1.799577e-02  0 
 9.101251e-04  -1.799579e-02  0 
 2.719485e-03  -1.801562e-02  0 
 4.419372e-03  -1.803718e-02  0 
VECTORS displacement_ITER7 FLOAT
 -4.239720e-03  -1.366371e-02  0 
 -4.373292e-03  -1.803361e-02  0 
 -2.446339e-03  -1.363610e-02  0 
 -8.215091e-04  -1.361655e-02  0 
 8.655024e-04  -1.361654e-02  0 
 2.490262e-03  -1.363616e-02  0 
 4.283624e-03  -1.366375e-02  0 
 -2.673730e-03  -1.801193e-02  0 
 -8.649478e-04  -1.798998e-02  0 
 9.088048e-04  -1.798992e-02  0 
 2.717645e-03  -1.801190e-02  0 
 4.417267e-03  -1.803353e-02  0 
VECTORS displacement_ITER8 FLOAT
 -4.239309e-03  -1.366215e-02  0 
 -4.372974e-03  -1.803176e-02  0 
 -2.446094e-03  -1.363458e-02  0 
 -8.214543e-04  -1.361502e-02  0 
 8.654750e-04  -1.361506e-02  0 
 2.490096e-03  -1.363468e-02  0 
 4.283338e-03  -1.366228e-02  0 
 -2.673472e-03  -1.801009e-02  0 
 -8.646922e-04  -1.798793e-02  0 
 9.087511e-04  -1.798794e-02  0 
 2.717525e-03  -1.801010e-02  0 
 4.416977e-03  -1.803180e-02  0 
VECTORS displacement_ITER9 FLOAT
 -4.239334e-03  -1.366024e-02  0 
 -4.373071e-03  -1.802949e-02  0 
 -2.446266e-03  -1.363262e-02  0 
 -8.216015e-04  -1.361294e-02  0 
 8.656845e-04  -1.361297e-02  0 
 2.490352e-03  -1.363268e-02  0 
 4.283406e-03  -1.366030e-02  0 
 -2.673633e-03  -1.800782e-02  0 
 -8.646368e-04  -1.798629e-02  0 
 9.087626e-04  -1.798631e-02  0 
 2.717752e-03  -1.800784e-02  0 
 4.417114e-03  -1.802953e-02  0 
VECTORS displacement_ITER10 FLOAT
 -4.239594e-03  -1.366001e-02  0 
 -4.373339e-03  -1.802929e-02  0 
 -2.446522e-03  -1.363238e-02  0 
 -8.217784e-04  -1.361267e-02  0 
 8.657208e-04  -1.361268e-02  0 
 2.490473e-03  -1.363240e-02  0 
 4.283526e-03  -1.366003e-02  0 
 -2.673897e-03  -1.800762e-02  0 
 -8.647578e-04  -1.798637e-02  0 
 9.086924e-04  -1.798636e-02  0 
 2.717850e-03  -1.800762e-02  0 
 4.417274e-03  -1.802929e-02  0 
VECTORS displacement_ITER11 FLOAT
 -4.239794e-03  -1.366050e-02  0 
 -4.373539e-03  -1.802998e-02  0 
 -2.446650e-03  -1.363287e-02  0 
 -8.218328e-04  -1.361321e-02  0 
 8.657555e-04  -1.361322e-02  0 
 2.490574e-03  -1.363289e-02  0 
 4.283709e-03  -1.366052e-02  0 
 -2.674030e-03  -1.800831e-02  0 
 -8.647881e-04  -1.798706e-02  0 
 9.087009e-04  -1.798706e-02  0 
 2.717955e-03  -1.800831e-02  0 
 4.417462e-03  -1.802997e-02  0 
VECTORS displacement_ITER12 FLOAT
 -4.239866e-03  -1.366083e-02  0 
 -4.373610e-03  -1.803043e-02  0 
 -2.446671e-03  -1.363320e-02  0 
 -8.218199e-04  -1.361359e-02  0 
 8.657895e-04  -1.361360e-02  0 
 2.490630e-03  -1.363323e-02  0 
 4.283815e-03  -1.366086e-02  0 
 -2.674056e-03  -1.800877e-02  0 
 -8.647661e-04  -1.798747e-02  0 
 9.087321e-04  -1.798747e-02  0 
 2.718022e-03  -1.800876e-02  0 
 4.417564e-03  -1.803042e-02  0 
VECTORS displacement_ITER13 FLOAT
 -4.239883e-03  -1.366102e-02  0 
 -4.373623e-03  -1.803066e-02  0 
 -2.446663e-03  -1.363339e-02  0 
 -8.218001e-04  -1.361380e-02  0 
 8.658095e-04  -1.361381e-02  0 
 2.490652e-03  -1.363342e-02  0 
 4.283859e-03  -1.366105e-02  0 
 -2.674056e-03  -1.800900e-02  0 
 -8.647462e-04  -1.798768e-02  0 
 9.087515e-04  -1.798768e-02  0 
 2.718054e-03  -1.800900e-02  0 
 4.417604e-03  -1.803066e-02  0 
VECTORS displacement_ITER14 FLOAT
 -4.239884e-03  -1.366111e-02  0 
 -4.373620e-03  -1.803075e-02  0 
 -2.446661e-03  -1.363348e-02  0 
 -8.217974e-04  -1.361389e-02  0 
 8.658146e-04  -1.361390e-02  0 
 2.490654e-03  -1.363351e-02  0 
 4.283867e-03  -1.366115e-02  0 
 -2.674062e-03  -1.800909e-02  0 
 -8.647456e-04  -1.798778e-02  0 
 9.087560e-04  -1.798778e-02  0 
 2.718066e-03  -1.800909e-02  0 
 4.417608e-03  -1.803075e-02  0 
VECTORS displacement_ITER15 FLOAT
 -4.239881e-03  -1.366112e-02  0 
 -4.373615e-03  -1.803073e-02  0 
 -2.446665e-03  -1.363348e-02  0 
 -8.218029e-04  -1.361388e-02  0 
 8.658140e-04  -1.361389e-02  0 
 2.490652e-03  -1.363351e-02  0 
 4.283856e-03  -1.366115e-02  0 
 -2.674068e-03  -1.800907e-02  0 
 -8.647518e-04  -1.798778e-02  0 
 9.087555e-04  -1.798778e-02  0 
 2.718066e-03  -1.800907e-02  0 
 4.417597e-03  -1.803073e-02  0 
VECTORS displacement_ITER16 FLOAT
 -4.239881e-03  -1.366111e-02  0 
 -4.373615e-03  -1.803072e-02  0 
 -2.446665e-03  -1.363347e-02  0 
 -8.218028e-04  -1.361387e-02  0 
 8.658136e-04  -1.361388e-02  0 
 2.490650e-03  -1.363351e-02  0 
 4.283852e-03  -1.366115e-02  0 
 -2.674068e-03  -1.800906e-02  0 
 -8.647523e-04  -1.798777e-02  0 
 9.087550e-04  -1.798777e-02  0 
 2.718064e-03  -1.800906e-02  0 
 4.417592e-03  -1.803072e-02  0 
VECTORS displacement_ITER17 FLOAT
 -4.239879e-03  -1.366111e-02  0 
 -4.373613e-03  -1.803072e-02  0 
 -2.446663e-03  -1.363347e-02  0 
 -8.218026e-04  -1.361387e-02  0 
 8.658121e-04  -1.361388e-02  0 
 2.490649e-03  -1.363351e-02  0 
 4.283853e-03  -1.366115e-02  0 
 -2.674066e-03  -1.800906e-02  0 
 -8.647524e-04  -1.798777e-02  0 
 9.087537e-04  -1.798776e-02  0 
 2.718063e-03  -1.800906e-02  0 
 4.417593e-03  -1.803072e-02  0 
VECTORS displacement_ITER18 FLOAT
 -4.239879e-03  -1.366111e-02  0 
 -4.373613e-03  -1.803072e-02  0 
 -2.446662e-03  -1.363347e-02  0 
 -8.218014e-04  -1.361387e-02  0 
 8.658125e-04  -1.361388e-02  0 
 2.490649e-03  -1.363351e-02  0 
 4.283852e-03  -1.366115e-02  0 
 -2.674065e-03  -1.800906e-02  0 
 -8.647514e-04  -1.798777e-02  0 
 9.087543e-04  -1.798776e-02  0 
 2.718063e-03  -1.800906e-02  0 
 4.417593e-03  -1.803072e-02  0 
VECTORS displacement_ITER19 FLOAT
 -4.239878e-03  -1.366111e-02  0 
 -4.373613e-03  -1.803072e-02  0 
 -2.446663e-03  -1.363347e-02  0 
 -8.218018e-04  -1.361387e-02  0 
 8.658121e-04  -1.361388e-02  0 
 2.490649e-03  -1.363351e-02  0 
 4.283853e-03  -1.366115e-02  0 
 -2.674065e-03  -1.800906e-02  0 
 -8.647519e-04  -1.798777e-02  0 
 9.087540e-04  -1.798776e-02  0 
 2.718063e-03  -1.800906e-02  0 
 4.417593e-03  -1.803072e-02  0 
VECTORS displacement_ITER20 FLOAT
 -4.239878e-03  -1.366111e-02  0 
 -4.373613e-03  -1.803072e-02  0 
 -2.446663e-03  -1.363347e-02  0 
 -8.218016e-04  -1.361387e-02  0 
 8.658124e-04  -1.361388e-02  0 
 2.490649e-03  -1.363351e-02  0 
 4.283852e-03  -1.366115e-02  0 
 -2.674065e-03  -1.800906e-02  0 
 -8.647518e-04  -1.798777e-02  0 
 9.087543e-04  -1.798776e-02  0 
 2.718064e-03  -1.800906e-02  0 
 4.417593e-03  -1.803072e-02  0 
VECTORS displacement_ITER21 FLOAT
 -4.239878e-03  -1.366111e-02  0 
 -4.373613e-03  -1.803072e-02  0 
 -2.446663e-03  -1.363347e-02  0 
 -8.218016e-04  -1.361387e-02  0 
 8.658124e-04  -1.361388e-02  0 
 2.490649e-03  -1.363351e-02  0 
 4.283852e-03  -1.366115e-02  0 
 -2.674065e-03  -1.800906e-02  0 
 -8.647518e-04  -1.798777e-02  0 
 9.087543e-04  -1.798776e-02  0 
 2.718064e-03  -1.800906e-02  0 
 4.417593e-03  -1.803072e-02  0 
VECTORS displacement_ITER22 FLOAT
 -4.239878e-03  -1.366111e-02  0 
 -4.373613e-03  -1.803072e-02  0 
 -2.446663e-03  -1.363347e-02  0 
 -8.218017e-04  -1.361387e-02  0 
 8.658123e-04  -1.361388e-02  0 
 2.490649e-03  -1.363351e-02  0 
 4.283853e-03  -1.366115e-02  0 
 -2.674065e-03  -1.800906e-02  0 
 -8.647519e-04  -1.798777e-02  0 
 9.087542e-04  -1.798776e-02  0 
 2.718063e-03  -1.800906e-02  0 
 4.417593e-03  -1.803072e-02  0 
VECTORS displacement_ITER23 FLOAT
 -4.239879e-03  -1.366111e-02  0 
 -4.373613e-03  -1.803072e-02  0 
 -2.446663e-03  -1.363347e-02  0 
 -8.218016e-04  -1.361387e-02  0 
 8.658123e-04  -1.361388e-02  0 
 2.490649e-03  -1.363351e-02  0 
 4.283853e-03  -1.366115e-02  0 
 -2.674065e-03  -1.800906e-02  0 
 -8.647518e-04  -1.798777e-02  0 
 9.087543e-04  -1.798776e-02  0 
 2.718063e-03  -1.800906e-02  0 
 4.417593e-03  -1.803072e-02  0 
VECTORS displacement_ITER24 FLOAT
 -4.239878e-03  -1.366111e-02  0 
 -4.373613e-03  -1.803072e-02  0 
 -2.446663e-03  -1.363347e-02  0 
 -8.218016e-04  -1.361387e-02  0 
 8.658123e-04  -1.361388e-02  0 
 2.490649e-03  -1.363351e-02  0 
 4.283853e-03  -1.366115e-02  0 
 -2.674065e-03  -1.800906e-02  0 
 -8.647518e-04  -1.798777e-02  0 
 9.087542e-04  -1.798776e-02  0 
 2.718064e-03  -1.800906e-02  0 
 4.417593e-03  -1.803072e-02  0 
VECTORS displacement_ITER25 FLOAT
 -4.239878e-03  -1.366111e-02  0 
 -4.373613e-03  -1.803072e-02  0 
 -2.446663e-03  -1.363347e-02  0 
 -8.218016e-04  -1.361387e-02  0 
 8.658123e-04  -1.361388e-02  0 
 2.490649e-03  -1.363351e-02  0 
 4.283853e-03  -1.366115e-02  0 
 -2.674065e-03  -1.800906e-02  0 
 -8.647518e-04  -1.798777e-02  0 
 9.087543e-04  -1.798776e-02  0 
 2.718063e-03  -1.800906e-02  0 
 4.417593e-03  -1.803072e-02  0 
CELL_DATA 5
TENSORS element_stresses FLOAT
 -3.562269e-01  -1.022655e-02  0 
 -1.022655e-02  1.636625e-02  0 
 0  0  0 

 -2.633827e-02  -1.261926e-02  0 
 -1.261926e-02  2.323346e-03  0 
 0  0  0 

 -1.461556e-05  -7.306034e-02  0 
 -7.306034e-02  -2.125121e-05  0 
 0  0  0 

 2.633640e-02  -1.262059e-02  0 
 -1.262059e-02  -2.330734e-03  0 
 0  0  0 

 3.562434e-01  -1.022326e-02  0 
 -1.022326e-02  -1.637052e-02  0 
 0  0  0 

TENSORS element_stresses FLOAT
 -3.562269e-01  -1.022655e-02  0 
 -1.022655e-02  1.636625e-02  0 
 0  0  0 

 -2.633827e-02  -1.261926e-02  0 
 -1.261926e-02  2.323346e-03  0 
 0  0  0 

 -1.461556e-05  -7.306034e-02  0 
 -7.306034e-02  -2.125121e-05  0 
 0  0  0 

 2.633640e-02  -1.262059e-02  0 
 -1.262059e-02  -2.330734e-03  0 
 0  0  0 

 3.562434e-01  -1.022326e-02  0 
 -1.022326e-02  -1.637052e-02  0 
 0  0  0 

