# vtk DataFile Version 3.1
this is an vtk file created by FEMAC
ASCII
DATASET UNSTRUCTURED_GRID
POINTS 12 FLOAT
6.500000 0.000000 0.000000
7.000000 0.000000 0.000000
6.500000 0.200000 0.000000
6.500000 0.400000 0.000000
6.500000 0.600000 0.000000
6.500000 0.800000 0.000000
6.500000 1.000000 0.000000
7.000000 0.200000 0.000000
7.000000 0.400000 0.000000
7.000000 0.600000 0.000000
7.000000 0.800000 0.000000
7.000000 1.000000 0.000000
CELLS 5 25 
4 0 1 7 2
4 2 7 8 3
4 3 8 9 4
4 4  9 10  5
4 5 10 11  6
CELL_TYPES 5
9 9 9 9 9 
POINT_DATA 12
VECTORS displacement_ITER1 FLOAT
 -5.759510e-03  -5.142633e-02  0 
 -5.815970e-03  -5.724731e-02  0 
 -3.461472e-03  -5.142330e-02  0 
 -1.136482e-03  -5.141896e-02  0 
 1.202996e-03  -5.141911e-02  0 
 3.527967e-03  -5.142350e-02  0 
 5.825177e-03  -5.142695e-02  0 
 -3.476405e-03  -5.725272e-02  0 
 -1.142270e-03  -5.725475e-02  0 
 1.208757e-03  -5.725491e-02  0 
 3.542910e-03  -5.725292e-02  0 
 5.883303e-03  -5.724793e-02  0 
VECTORS displacement_ITER2 FLOAT
 -5.612340e-03  -5.015805e-02  0 
 -5.660098e-03  -5.582049e-02  0 
 -3.368174e-03  -5.016167e-02  0 
 -1.114262e-03  -5.015885e-02  0 
 1.139890e-03  -5.015870e-02  0 
 3.393946e-03  -5.016148e-02  0 
 5.638509e-03  -5.015757e-02  0 
 -3.384909e-03  -5.581699e-02  0 
 -1.120717e-03  -5.581656e-02  0 
 1.146355e-03  -5.581669e-02  0 
 3.410658e-03  -5.581717e-02  0 
 5.686067e-03  -5.582058e-02  0 
VECTORS displacement_ITER3 FLOAT
 -5.508033e-03  -4.938088e-02  0 
 -5.551221e-03  -5.494430e-02  0 
 -3.297785e-03  -4.938465e-02  0 
 -1.085168e-03  -4.938235e-02  0 
 1.121589e-03  -4.938250e-02  0 
 3.334014e-03  -4.938480e-02  0 
 5.544442e-03  -4.938090e-02  0 
 -3.315525e-03  -5.493851e-02  0 
 -1.091895e-03  -5.493708e-02  0 
 1.128326e-03  -5.493677e-02  0 
 3.351755e-03  -5.493814e-02  0 
 5.586502e-03  -5.494338e-02  0 
VECTORS displacement_ITER4 FLOAT
 -5.482900e-03  -4.919260e-02  0 
 -5.526007e-03  -5.472754e-02  0 
 -3.283738e-03  -4.919211e-02  0 
 -1.079316e-03  -4.918931e-02  0 
 1.122240e-03  -4.918920e-02  0 
 3.326692e-03  -4.919199e-02  0 
 5.526279e-03  -4.919224e-02  0 
 -3.301511e-03  -5.472513e-02  0 
 -1.085918e-03  -5.472430e-02  0 
 1.128841e-03  -5.472429e-02  0 
 3.344480e-03  -5.472510e-02  0 
 5.568674e-03  -5.472742e-02  0 
VECTORS displacement_ITER5 FLOAT
 -5.473909e-03  -4.911641e-02  0 
 -5.517140e-03  -5.463956e-02  0 
 -3.279688e-03  -4.911362e-02  0 
 -1.078270e-03  -4.911052e-02  0 
 1.122456e-03  -4.911044e-02  0 
 3.323920e-03  -4.911354e-02  0 
 5.518296e-03  -4.911625e-02  0 
 -3.297435e-03  -5.463887e-02  0 
 -1.084762e-03  -5.463846e-02  0 
 1.128945e-03  -5.463851e-02  0 
 3.341673e-03  -5.463891e-02  0 
 5.561378e-03  -5.463965e-02  0 
VECTORS displacement_ITER6 FLOAT
 -5.471612e-03  -4.909614e-02  0 
 -5.514944e-03  -5.461703e-02  0 
 -3.278536e-03  -4.909319e-02  0 
 -1.078027e-03  -4.909006e-02  0 
 1.122279e-03  -4.909006e-02  0 
 3.322789e-03  -4.909319e-02  0 
 5.515833e-03  -4.909617e-02  0 
 -3.296270e-03  -5.461618e-02  0 
 -1.084455e-03  -5.461585e-02  0 
 1.128706e-03  -5.461586e-02  0 
 3.340524e-03  -5.461618e-02  0 
 5.559210e-03  -5.461704e-02  0 
VECTORS displacement_ITER7 FLOAT
 -5.470288e-03  -4.908350e-02  0 
 -5.513855e-03  -5.460392e-02  0 
 -3.277716e-03  -4.908089e-02  0 
 -1.077791e-03  -4.907780e-02  0 
 1.122106e-03  -4.907784e-02  0 
 3.322009e-03  -4.908093e-02  0 
 5.514497e-03  -4.908360e-02  0 
 -3.295421e-03  -5.460252e-02  0 
 -1.084124e-03  -5.460220e-02  0 
 1.128438e-03  -5.460218e-02  0 
 3.339713e-03  -5.460251e-02  0 
 5.558147e-03  -5.460389e-02  0 
VECTORS displacement_ITER8 FLOAT
 -5.470548e-03  -4.908194e-02  0 
 -5.514334e-03  -5.460287e-02  0 
 -3.277922e-03  -4.907949e-02  0 
 -1.077924e-03  -4.907644e-02  0 
 1.122108e-03  -4.907644e-02  0 
 3.322107e-03  -4.907948e-02  0 
 5.514748e-03  -4.908193e-02  0 
 -3.295593e-03  -5.460138e-02  0 
 -1.084184e-03  -5.460104e-02  0 
 1.128368e-03  -5.460104e-02  0 
 3.339780e-03  -5.460139e-02  0 
 5.558529e-03  -5.460288e-02  0 
VECTORS displacement_ITER9 FLOAT
 -5.471947e-03  -4.908417e-02  0 
 -5.515922e-03  -5.460649e-02  0 
 -3.278854e-03  -4.908187e-02  0 
 -1.078365e-03  -4.907885e-02  0 
 1.122288e-03  -4.907889e-02  0 
 3.322746e-03  -4.908192e-02  0 
 5.515733e-03  -4.908423e-02  0 
 -3.296484e-03  -5.460511e-02  0 
 -1.084518e-03  -5.460474e-02  0 
 1.128442e-03  -5.460471e-02  0 
 3.340372e-03  -5.460506e-02  0 
 5.559756e-03  -5.460643e-02  0 
VECTORS displacement_ITER10 FLOAT
 -5.472330e-03  -4.908656e-02  0 
 -5.516414e-03  -5.460906e-02  0 
 -3.279251e-03  -4.908417e-02  0 
 -1.078612e-03  -4.908112e-02  0 
 1.122350e-03  -4.908100e-02  0 
 3.323080e-03  -4.908403e-02  0 
 5.516461e-03  -4.908628e-02  0 
 -3.296877e-03  -5.460779e-02  0 
 -1.084740e-03  -5.460745e-02  0 
 1.128477e-03  -5.460754e-02  0 
 3.340713e-03  -5.460790e-02  0 
 5.560369e-03  -5.460925e-02  0 
VECTORS displacement_ITER11 FLOAT
 -5.472773e-03  -4.908782e-02  0 
 -5.516590e-03  -5.461096e-02  0 
 -3.279271e-03  -4.908554e-02  0 
 -1.078477e-03  -4.908250e-02  0 
 1.122574e-03  -4.908269e-02  0 
 3.323219e-03  -4.908576e-02  0 
 5.516314e-03  -4.908822e-02  0 
 -3.296924e-03  -5.460958e-02  0 
 -1.084609e-03  -5.460923e-02  0 
 1.128708e-03  -5.460907e-02  0 
 3.340864e-03  -5.460939e-02  0 
 5.560288e-03  -5.461062e-02  0 
VECTORS displacement_ITER12 FLOAT
 -5.472432e-03  -4.908865e-02  0 
 -5.516259e-03  -5.461110e-02  0 
 -3.279220e-03  -4.908620e-02  0 
 -1.078576e-03  -4.908313e-02  0 
 1.122454e-03  -4.908302e-02  0 
 3.323193e-03  -4.908607e-02  0 
 5.516597e-03  -4.908842e-02  0 
 -3.296880e-03  -5.460984e-02  0 
 -1.084714e-03  -5.460952e-02  0 
 1.128592e-03  -5.460963e-02  0 
 3.340854e-03  -5.460997e-02  0 
 5.560426e-03  -5.461133e-02  0 
VECTORS displacement_ITER13 FLOAT
 -5.472447e-03  -4.908833e-02  0 
 -5.516265e-03  -5.461105e-02  0 
 -3.279103e-03  -4.908596e-02  0 
 -1.078433e-03  -4.908290e-02  0 
 1.122526e-03  -4.908298e-02  0 
 3.323123e-03  -4.908605e-02  0 
 5.516359e-03  -4.908849e-02  0 
 -3.296769e-03  -5.460969e-02  0 
 -1.084570e-03  -5.460935e-02  0 
 1.128663e-03  -5.460926e-02  0 
 3.340792e-03  -5.460959e-02  0 
 5.560110e-03  -5.461086e-02  0 
VECTORS displacement_ITER14 FLOAT
 -5.472298e-03  -4.908811e-02  0 
 -5.516035e-03  -5.461051e-02  0 
 -3.279028e-03  -4.908569e-02  0 
 -1.078448e-03  -4.908264e-02  0 
 1.122445e-03  -4.908263e-02  0 
 3.323034e-03  -4.908569e-02  0 
 5.516296e-03  -4.908810e-02  0 
 -3.296700e-03  -5.460921e-02  0 
 -1.084583e-03  -5.460887e-02  0 
 1.128581e-03  -5.460888e-02  0 
 3.340704e-03  -5.460922e-02  0 
 5.560082e-03  -5.461054e-02  0 
VECTORS displacement_ITER15 FLOAT
 -5.472259e-03  -4.908795e-02  0 
 -5.516028e-03  -5.461033e-02  0 
 -3.279010e-03  -4.908553e-02  0 
 -1.078441e-03  -4.908248e-02  0 
 1.122437e-03  -4.908247e-02  0 
 3.323009e-03  -4.908553e-02  0 
 5.516269e-03  -4.908794e-02  0 
 -3.296681e-03  -5.460902e-02  0 
 -1.084575e-03  -5.460868e-02  0 
 1.128570e-03  -5.460869e-02  0 
 3.340680e-03  -5.460902e-02  0 
 5.560027e-03  -5.461034e-02  0 
VECTORS displacement_ITER16 FLOAT
 -5.472266e-03  -4.908791e-02  0 
 -5.516032e-03  -5.461031e-02  0 
 -3.279010e-03  -4.908550e-02  0 
 -1.078439e-03  -4.908244e-02  0 
 1.122441e-03  -4.908245e-02  0 
 3.323009e-03  -4.908550e-02  0 
 5.516257e-03  -4.908792e-02  0 
 -3.296681e-03  -5.460899e-02  0 
 -1.084572e-03  -5.460866e-02  0 
 1.128574e-03  -5.460865e-02  0 
 3.340680e-03  -5.460899e-02  0 
 5.560028e-03  -5.461030e-02  0 
VECTORS displacement_ITER17 FLOAT
 -5.472262e-03  -4.908791e-02  0 
 -5.516035e-03  -5.461030e-02  0 
 -3.279013e-03  -4.908550e-02  0 
 -1.078442e-03  -4.908244e-02  0 
 1.122440e-03  -4.908244e-02  0 
 3.323011e-03  -4.908550e-02  0 
 5.516262e-03  -4.908791e-02  0 
 -3.296683e-03  -5.460899e-02  0 
 -1.084574e-03  -5.460865e-02  0 
 1.128572e-03  -5.460865e-02  0 
 3.340681e-03  -5.460899e-02  0 
 5.560034e-03  -5.461031e-02  0 
VECTORS displacement_ITER18 FLOAT
 -5.472264e-03  -4.908792e-02  0 
 -5.516037e-03  -5.461031e-02  0 
 -3.279013e-03  -4.908550e-02  0 
 -1.078442e-03  -4.908245e-02  0 
 1.122441e-03  -4.908245e-02  0 
 3.323012e-03  -4.908550e-02  0 
 5.516262e-03  -4.908792e-02  0 
 -3.296683e-03  -5.460900e-02  0 
 -1.084574e-03  -5.460866e-02  0 
 1.128573e-03  -5.460866e-02  0 
 3.340682e-03  -5.460900e-02  0 
 5.560037e-03  -5.461031e-02  0 
VECTORS displacement_ITER19 FLOAT
 -5.472264e-03  -4.908792e-02  0 
 -5.516038e-03  -5.461031e-02  0 
 -3.279014e-03  -4.908550e-02  0 
 -1.078442e-03  -4.908245e-02  0 
 1.122441e-03  -4.908245e-02  0 
 3.323013e-03  -4.908550e-02  0 
 5.516263e-03  -4.908792e-02  0 
 -3.296683e-03  -5.460900e-02  0 
 -1.084574e-03  -5.460866e-02  0 
 1.128573e-03  -5.460866e-02  0 
 3.340683e-03  -5.460900e-02  0 
 5.560037e-03  -5.461031e-02  0 
VECTORS displacement_ITER20 FLOAT
 -5.472264e-03  -4.908792e-02  0 
 -5.516038e-03  -5.461031e-02  0 
 -3.279014e-03  -4.908550e-02  0 
 -1.078442e-03  -4.908245e-02  0 
 1.122441e-03  -4.908245e-02  0 
 3.323013e-03  -4.908550e-02  0 
 5.516263e-03  -4.908792e-02  0 
 -3.296684e-03  -5.460900e-02  0 
 -1.084574e-03  -5.460866e-02  0 
 1.128573e-03  -5.460866e-02  0 
 3.340683e-03  -5.460900e-02  0 
 5.560037e-03  -5.461031e-02  0 
VECTORS displacement_ITER21 FLOAT
 -5.472264e-03  -4.908792e-02  0 
 -5.516038e-03  -5.461031e-02  0 
 -3.279014e-03  -4.908550e-02  0 
 -1.078442e-03  -4.908245e-02  0 
 1.122441e-03  -4.908245e-02  0 
 3.323013e-03  -4.908550e-02  0 
 5.516263e-03  -4.908792e-02  0 
 -3.296684e-03  -5.460900e-02  0 
 -1.084574e-03  -5.460866e-02  0 
 1.128573e-03  -5.460866e-02  0 
 3.340683e-03  -5.460900e-02  0 
 5.560037e-03  -5.461031e-02  0 
VECTORS displacement_ITER22 FLOAT
 -5.472264e-03  -4.908792e-02  0 
 -5.516038e-03  -5.461031e-02  0 
 -3.279014e-03  -4.908550e-02  0 
 -1.078442e-03  -4.908245e-02  0 
 1.122441e-03  -4.908245e-02  0 
 3.323013e-03  -4.908550e-02  0 
 5.516263e-03  -4.908792e-02  0 
 -3.296684e-03  -5.460900e-02  0 
 -1.084574e-03  -5.460866e-02  0 
 1.128573e-03  -5.460866e-02  0 
 3.340683e-03  -5.460900e-02  0 
 5.560037e-03  -5.461031e-02  0 
VECTORS displacement_ITER23 FLOAT
 -5.472264e-03  -4.908792e-02  0 
 -5.516038e-03  -5.461031e-02  0 
 -3.279014e-03  -4.908550e-02  0 
 -1.078442e-03  -4.908245e-02  0 
 1.122441e-03  -4.908245e-02  0 
 3.323013e-03  -4.908550e-02  0 
 5.516263e-03  -4.908792e-02  0 
 -3.296684e-03  -5.460900e-02  0 
 -1.084574e-03  -5.460866e-02  0 
 1.128573e-03  -5.460866e-02  0 
 3.340683e-03  -5.460900e-02  0 
 5.560037e-03  -5.461031e-02  0 
VECTORS displacement_ITER24 FLOAT
 -5.472264e-03  -4.908792e-02  0 
 -5.516038e-03  -5.461031e-02  0 
 -3.279014e-03  -4.908550e-02  0 
 -1.078442e-03  -4.908245e-02  0 
 1.122441e-03  -4.908245e-02  0 
 3.323013e-03  -4.908550e-02  0 
 5.516263e-03  -4.908792e-02  0 
 -3.296684e-03  -5.460900e-02  0 
 -1.084574e-03  -5.460866e-02  0 
 1.128573e-03  -5.460866e-02  0 
 3.340683e-03  -5.460900e-02  0 
 5.560037e-03  -5.461031e-02  0 
VECTORS displacement_ITER25 FLOAT
 -5.472264e-03  -4.908792e-02  0 
 -5.516038e-03  -5.461031e-02  0 
 -3.279014e-03  -4.908550e-02  0 
 -1.078442e-03  -4.908245e-02  0 
 1.122441e-03  -4.908245e-02  0 
 3.323013e-03  -4.908550e-02  0 
 5.516263e-03  -4.908792e-02  0 
 -3.296684e-03  -5.460900e-02  0 
 -1.084574e-03  -5.460866e-02  0 
 1.128573e-03  -5.460866e-02  0 
 3.340683e-03  -5.460900e-02  0 
 5.560037e-03  -5.461031e-02  0 
CELL_DATA 5
TENSORS element_stresses FLOAT
 -6.444635e-03  -1.106011e-03  0 
 -1.106011e-03  -1.000984e-03  0 
 0  0  0 

 -2.336027e-02  -1.385164e-02  0 
 -1.385164e-02  1.472327e-03  0 
 0  0  0 

 8.419931e-12  -1.334701e-03  0 
 -1.334701e-03  -9.382948e-10  0 
 0  0  0 

 2.336028e-02  -1.385164e-02  0 
 -1.385164e-02  -1.472329e-03  0 
 0  0  0 

 6.444634e-03  -1.106009e-03  0 
 -1.106009e-03  1.000984e-03  0 
 0  0  0 

TENSORS element_stresses FLOAT
 -6.444635e-03  -1.106011e-03  0 
 -1.106011e-03  -1.000984e-03  0 
 0  0  0 

 -2.336027e-02  -1.385164e-02  0 
 -1.385164e-02  1.472327e-03  0 
 0  0  0 

 8.419931e-12  -1.334701e-03  0 
 -1.334701e-03  -9.382948e-10  0 
 0  0  0 

 2.336028e-02  -1.385164e-02  0 
 -1.385164e-02  -1.472329e-03  0 
 0  0  0 

 6.444634e-03  -1.106009e-03  0 
 -1.106009e-03  1.000984e-03  0 
 0  0  0 

