# vtk DataFile Version 3.1
this is an vtk file created by FEMAC
ASCII
DATASET UNSTRUCTURED_GRID
POINTS 12 FLOAT
5.500000 0.000000 0.000000
6.000000 0.000000 0.000000
5.500000 0.200000 0.000000
5.500000 0.400000 0.000000
5.500000 0.600000 0.000000
5.500000 0.800000 0.000000
5.500000 1.000000 0.000000
6.000000 0.200000 0.000000
6.000000 0.400000 0.000000
6.000000 0.600000 0.000000
6.000000 0.800000 0.000000
6.000000 1.000000 0.000000
CELLS 5 25 
4 0 1 7 2
4 2 7 8 3
4 3 8 9 4
4 4  9 10  5
4 5 10 11  6
CELL_TYPES 5
9 9 9 9 9 
POINT_DATA 12
VECTORS displacement_ITER1 FLOAT
 -5.579534e-03  -3.991057e-02  0 
 -5.745488e-03  -4.560709e-02  0 
 -3.373459e-03  -3.990757e-02  0 
 -1.106154e-03  -3.989960e-02  0 
 1.172160e-03  -3.989976e-02  0 
 3.439445e-03  -3.990777e-02  0 
 5.644692e-03  -3.991119e-02  0 
 -3.421901e-03  -4.561941e-02  0 
 -1.128792e-03  -4.562012e-02  0 
 1.194770e-03  -4.562028e-02  0 
 3.487898e-03  -4.561961e-02  0 
 5.812313e-03  -4.560770e-02  0 
VECTORS displacement_ITER2 FLOAT
 -5.445646e-03  -3.897354e-02  0 
 -5.596337e-03  -4.453102e-02  0 
 -3.281291e-03  -3.897869e-02  0 
 -1.082757e-03  -3.897179e-02  0 
 1.108693e-03  -3.897177e-02  0 
 3.307230e-03  -3.897865e-02  0 
 5.471876e-03  -3.897328e-02  0 
 -3.333482e-03  -4.452399e-02  0 
 -1.106738e-03  -4.452165e-02  0 
 1.132677e-03  -4.452163e-02  0 
 3.359419e-03  -4.452395e-02  0 
 5.621982e-03  -4.453076e-02  0 
VECTORS displacement_ITER3 FLOAT
 -5.347843e-03  -3.839731e-02  0 
 -5.490059e-03  -4.386070e-02  0 
 -3.212104e-03  -3.840009e-02  0 
 -1.053708e-03  -3.839335e-02  0 
 1.090228e-03  -3.839329e-02  0 
 3.248612e-03  -3.840002e-02  0 
 5.384831e-03  -3.839693e-02  0 
 -3.266491e-03  -4.384789e-02  0 
 -1.078300e-03  -4.384432e-02  0 
 1.114827e-03  -4.384423e-02  0 
 3.302998e-03  -4.384777e-02  0 
 5.526007e-03  -4.386024e-02  0 
VECTORS displacement_ITER4 FLOAT
 -5.322823e-03  -3.825536e-02  0 
 -5.464276e-03  -4.368574e-02  0 
 -3.198780e-03  -3.825105e-02  0 
 -1.048302e-03  -3.824377e-02  0 
 1.091372e-03  -3.824368e-02  0 
 3.241897e-03  -3.825094e-02  0 
 5.366221e-03  -3.825509e-02  0 
 -3.253314e-03  -4.367886e-02  0 
 -1.072723e-03  -4.367593e-02  0 
 1.115794e-03  -4.367595e-02  0 
 3.296428e-03  -4.367888e-02  0 
 5.507309e-03  -4.368568e-02  0 
VECTORS displacement_ITER5 FLOAT
 -5.313483e-03  -3.819741e-02  0 
 -5.455101e-03  -4.361360e-02  0 
 -3.194978e-03  -3.818968e-02  0 
 -1.047453e-03  -3.818216e-02  0 
 1.091776e-03  -3.818218e-02  0 
 3.239266e-03  -3.818970e-02  0 
 5.357761e-03  -3.819744e-02  0 
 -3.249437e-03  -4.360991e-02  0 
 -1.071685e-03  -4.360742e-02  0 
 1.116006e-03  -4.360737e-02  0 
 3.293727e-03  -4.360984e-02  0 
 5.499281e-03  -4.361347e-02  0 
VECTORS displacement_ITER6 FLOAT
 -5.311005e-03  -3.818171e-02  0 
 -5.452854e-03  -4.359564e-02  0 
 -3.193712e-03  -3.817409e-02  0 
 -1.047211e-03  -3.816662e-02  0 
 1.091460e-03  -3.816660e-02  0 
 3.237961e-03  -3.817406e-02  0 
 5.355306e-03  -3.818167e-02  0 
 -3.248100e-03  -4.359182e-02  0 
 -1.071321e-03  -4.358941e-02  0 
 1.115566e-03  -4.358940e-02  0 
 3.292354e-03  -4.359181e-02  0 
 5.497081e-03  -4.359564e-02  0 
VECTORS displacement_ITER7 FLOAT
 -5.309622e-03  -3.817108e-02  0 
 -5.451747e-03  -4.358524e-02  0 
 -3.192657e-03  -3.816439e-02  0 
 -1.046875e-03  -3.815707e-02  0 
 1.091163e-03  -3.815710e-02  0 
 3.236926e-03  -3.816443e-02  0 
 5.353767e-03  -3.817117e-02  0 
 -3.246965e-03  -4.358052e-02  0 
 -1.070826e-03  -4.357810e-02  0 
 1.115114e-03  -4.357809e-02  0 
 3.291231e-03  -4.358050e-02  0 
 5.496016e-03  -4.358522e-02  0 
VECTORS displacement_ITER8 FLOAT
 -5.309453e-03  -3.816913e-02  0 
 -5.452044e-03  -4.358343e-02  0 
 -3.192778e-03  -3.816257e-02  0 
 -1.047064e-03  -3.815526e-02  0 
 1.091107e-03  -3.815510e-02  0 
 3.236942e-03  -3.816238e-02  0 
 5.354024e-03  -3.816880e-02  0 
 -3.247034e-03  -4.357860e-02  0 
 -1.070922e-03  -4.357617e-02  0 
 1.114962e-03  -4.357631e-02  0 
 3.291212e-03  -4.357876e-02  0 
 5.496401e-03  -4.358371e-02  0 
VECTORS displacement_ITER9 FLOAT
 -5.311200e-03  -3.816854e-02  0 
 -5.453846e-03  -4.358499e-02  0 
 -3.193615e-03  -3.816222e-02  0 
 -1.047252e-03  -3.815498e-02  0 
 1.091643e-03  -3.815554e-02  0 
 3.237571e-03  -3.816289e-02  0 
 5.353868e-03  -3.816975e-02  0 
 -3.247839e-03  -4.358009e-02  0 
 -1.070966e-03  -4.357760e-02  0 
 1.115364e-03  -4.357713e-02  0 
 3.291764e-03  -4.357953e-02  0 
 5.497114e-03  -4.358401e-02  0 
VECTORS displacement_ITER10 FLOAT
 -5.310690e-03  -3.817083e-02  0 
 -5.453832e-03  -4.358570e-02  0 
 -3.194048e-03  -3.816397e-02  0 
 -1.047883e-03  -3.815663e-02  0 
 1.091340e-03  -3.815621e-02  0 
 3.237849e-03  -3.816349e-02  0 
 5.355292e-03  -3.816993e-02  0 
 -3.248241e-03  -4.358128e-02  0 
 -1.071552e-03  -4.357887e-02  0 
 1.115009e-03  -4.357926e-02  0 
 3.292048e-03  -4.358172e-02  0 
 5.498272e-03  -4.358650e-02  0 
VECTORS displacement_ITER11 FLOAT
 -5.311391e-03  -3.817144e-02  0 
 -5.454485e-03  -4.358789e-02  0 
 -3.194054e-03  -3.816492e-02  0 
 -1.047545e-03  -3.815761e-02  0 
 1.091740e-03  -3.815786e-02  0 
 3.238015e-03  -3.816520e-02  0 
 5.355000e-03  -3.817196e-02  0 
 -3.248254e-03  -4.358313e-02  0 
 -1.071208e-03  -4.358069e-02  0 
 1.115401e-03  -4.358041e-02  0 
 3.292225e-03  -4.358282e-02  0 
 5.497903e-03  -4.358729e-02  0 
VECTORS displacement_ITER12 FLOAT
 -5.311271e-03  -3.817225e-02  0 
 -5.454129e-03  -4.358815e-02  0 
 -3.194016e-03  -3.816562e-02  0 
 -1.047634e-03  -3.815830e-02  0 
 1.091622e-03  -3.815831e-02  0 
 3.238003e-03  -3.816564e-02  0 
 5.355185e-03  -3.817228e-02  0 
 -3.248235e-03  -4.358353e-02  0 
 -1.071298e-03  -4.358111e-02  0 
 1.115288e-03  -4.358111e-02  0 
 3.292216e-03  -4.358354e-02  0 
 5.498172e-03  -4.358817e-02  0 
VECTORS displacement_ITER13 FLOAT
 -5.311117e-03  -3.817244e-02  0 
 -5.453967e-03  -4.358809e-02  0 
 -3.193940e-03  -3.816576e-02  0 
 -1.047629e-03  -3.815844e-02  0 
 1.091566e-03  -3.815837e-02  0 
 3.237935e-03  -3.816569e-02  0 
 5.355228e-03  -3.817230e-02  0 
 -3.248166e-03  -4.358350e-02  0 
 -1.071298e-03  -4.358107e-02  0 
 1.115235e-03  -4.358114e-02  0 
 3.292162e-03  -4.358357e-02  0 
 5.498065e-03  -4.358823e-02  0 
VECTORS displacement_ITER14 FLOAT
 -5.311102e-03  -3.817227e-02  0 
 -5.453908e-03  -4.358798e-02  0 
 -3.193867e-03  -3.816562e-02  0 
 -1.047562e-03  -3.815830e-02  0 
 1.091585e-03  -3.815831e-02  0 
 3.237878e-03  -3.816563e-02  0 
 5.355108e-03  -3.817229e-02  0 
 -3.248102e-03  -4.358335e-02  0 
 -1.071234e-03  -4.358092e-02  0 
 1.115256e-03  -4.358090e-02  0 
 3.292114e-03  -4.358333e-02  0 
 5.497873e-03  -4.358794e-02  0 
VECTORS displacement_ITER15 FLOAT
 -5.311081e-03  -3.817218e-02  0 
 -5.453855e-03  -4.358783e-02  0 
 -3.193854e-03  -3.816552e-02  0 
 -1.047566e-03  -3.815820e-02  0 
 1.091569e-03  -3.815820e-02  0 
 3.237854e-03  -3.816552e-02  0 
 5.355076e-03  -3.817219e-02  0 
 -3.248091e-03  -4.358321e-02  0 
 -1.071238e-03  -4.358078e-02  0 
 1.115241e-03  -4.358078e-02  0 
 3.292092e-03  -4.358321e-02  0 
 5.497854e-03  -4.358783e-02  0 
VECTORS displacement_ITER16 FLOAT
 -5.311074e-03  -3.817216e-02  0 
 -5.453853e-03  -4.358780e-02  0 
 -3.193854e-03  -3.816550e-02  0 
 -1.047570e-03  -3.815818e-02  0 
 1.091565e-03  -3.815817e-02  0 
 3.237851e-03  -3.816549e-02  0 
 5.355075e-03  -3.817216e-02  0 
 -3.248091e-03  -4.358318e-02  0 
 -1.071242e-03  -4.358075e-02  0 
 1.115237e-03  -4.358075e-02  0 
 3.292088e-03  -4.358318e-02  0 
 5.497854e-03  -4.358780e-02  0 
VECTORS displacement_ITER17 FLOAT
 -5.311075e-03  -3.817216e-02  0 
 -5.453856e-03  -4.358780e-02  0 
 -3.193853e-03  -3.816549e-02  0 
 -1.047568e-03  -3.815817e-02  0 
 1.091567e-03  -3.815817e-02  0 
 3.237852e-03  -3.816549e-02  0 
 5.355073e-03  -3.817216e-02  0 
 -3.248091e-03  -4.358318e-02  0 
 -1.071240e-03  -4.358075e-02  0 
 1.115239e-03  -4.358075e-02  0 
 3.292089e-03  -4.358318e-02  0 
 5.497855e-03  -4.358780e-02  0 
VECTORS displacement_ITER18 FLOAT
 -5.311075e-03  -3.817216e-02  0 
 -5.453858e-03  -4.358780e-02  0 
 -3.193854e-03  -3.816549e-02  0 
 -1.047568e-03  -3.815817e-02  0 
 1.091568e-03  -3.815817e-02  0 
 3.237853e-03  -3.816549e-02  0 
 5.355074e-03  -3.817216e-02  0 
 -3.248091e-03  -4.358318e-02  0 
 -1.071240e-03  -4.358075e-02  0 
 1.115239e-03  -4.358075e-02  0 
 3.292090e-03  -4.358318e-02  0 
 5.497856e-03  -4.358780e-02  0 
VECTORS displacement_ITER19 FLOAT
 -5.311076e-03  -3.817216e-02  0 
 -5.453858e-03  -4.358780e-02  0 
 -3.193854e-03  -3.816550e-02  0 
 -1.047569e-03  -3.815818e-02  0 
 1.091568e-03  -3.815818e-02  0 
 3.237853e-03  -3.816550e-02  0 
 5.355074e-03  -3.817216e-02  0 
 -3.248091e-03  -4.358318e-02  0 
 -1.071240e-03  -4.358075e-02  0 
 1.115239e-03  -4.358075e-02  0 
 3.292090e-03  -4.358318e-02  0 
 5.497857e-03  -4.358780e-02  0 
VECTORS displacement_ITER20 FLOAT
 -5.311076e-03  -3.817216e-02  0 
 -5.453858e-03  -4.358780e-02  0 
 -3.193854e-03  -3.816550e-02  0 
 -1.047569e-03  -3.815818e-02  0 
 1.091568e-03  -3.815818e-02  0 
 3.237853e-03  -3.816550e-02  0 
 5.355074e-03  -3.817216e-02  0 
 -3.248091e-03  -4.358318e-02  0 
 -1.071240e-03  -4.358075e-02  0 
 1.115239e-03  -4.358075e-02  0 
 3.292090e-03  -4.358318e-02  0 
 5.497857e-03  -4.358780e-02  0 
VECTORS displacement_ITER21 FLOAT
 -5.311076e-03  -3.817216e-02  0 
 -5.453858e-03  -4.358780e-02  0 
 -3.193854e-03  -3.816549e-02  0 
 -1.047569e-03  -3.815818e-02  0 
 1.091568e-03  -3.815818e-02  0 
 3.237853e-03  -3.816549e-02  0 
 5.355075e-03  -3.817216e-02  0 
 -3.248091e-03  -4.358318e-02  0 
 -1.071240e-03  -4.358075e-02  0 
 1.115239e-03  -4.358075e-02  0 
 3.292090e-03  -4.358318e-02  0 
 5.497857e-03  -4.358780e-02  0 
VECTORS displacement_ITER22 FLOAT
 -5.311076e-03  -3.817216e-02  0 
 -5.453858e-03  -4.358780e-02  0 
 -3.193854e-03  -3.816550e-02  0 
 -1.047569e-03  -3.815818e-02  0 
 1.091568e-03  -3.815818e-02  0 
 3.237853e-03  -3.816550e-02  0 
 5.355075e-03  -3.817216e-02  0 
 -3.248091e-03  -4.358318e-02  0 
 -1.071240e-03  -4.358075e-02  0 
 1.115239e-03  -4.358075e-02  0 
 3.292090e-03  -4.358318e-02  0 
 5.497857e-03  -4.358780e-02  0 
VECTORS displacement_ITER23 FLOAT
 -5.311076e-03  -3.817216e-02  0 
 -5.453858e-03  -4.358780e-02  0 
 -3.193854e-03  -3.816550e-02  0 
 -1.047569e-03  -3.815818e-02  0 
 1.091568e-03  -3.815818e-02  0 
 3.237853e-03  -3.816550e-02  0 
 5.355075e-03  -3.817216e-02  0 
 -3.248091e-03  -4.358318e-02  0 
 -1.071240e-03  -4.358075e-02  0 
 1.115239e-03  -4.358075e-02  0 
 3.292090e-03  -4.358318e-02  0 
 5.497857e-03  -4.358780e-02  0 
VECTORS displacement_ITER24 FLOAT
 -5.311076e-03  -3.817216e-02  0 
 -5.453858e-03  -4.358780e-02  0 
 -3.193854e-03  -3.816550e-02  0 
 -1.047569e-03  -3.815818e-02  0 
 1.091568e-03  -3.815818e-02  0 
 3.237853e-03  -3.816550e-02  0 
 5.355075e-03  -3.817216e-02  0 
 -3.248091e-03  -4.358318e-02  0 
 -1.071240e-03  -4.358075e-02  0 
 1.115239e-03  -4.358075e-02  0 
 3.292090e-03  -4.358318e-02  0 
 5.497857e-03  -4.358780e-02  0 
VECTORS displacement_ITER25 FLOAT
 -5.311076e-03  -3.817216e-02  0 
 -5.453858e-03  -4.358780e-02  0 
 -3.193854e-03  -3.816550e-02  0 
 -1.047569e-03  -3.815818e-02  0 
 1.091568e-03  -3.815818e-02  0 
 3.237853e-03  -3.816550e-02  0 
 5.355075e-03  -3.817216e-02  0 
 -3.248091e-03  -4.358318e-02  0 
 -1.071240e-03  -4.358075e-02  0 
 1.115239e-03  -4.358075e-02  0 
 3.292090e-03  -4.358318e-02  0 
 5.497857e-03  -4.358780e-02  0 
CELL_DATA 5
TENSORS element_stresses FLOAT
 -2.072046e-02  -1.989102e-03  0 
 -1.989102e-03  -3.395049e-03  0 
 0  0  0 

 -7.757865e-02  -2.493924e-02  0 
 -2.493924e-02  1.099699e-03  0 
 0  0  0 

 -3.287783e-10  -2.393238e-03  0 
 -2.393238e-03  1.033750e-08  0 
 0  0  0 

 7.757863e-02  -2.493930e-02  0 
 -2.493930e-02  -1.099681e-03  0 
 0  0  0 

 2.072048e-02  -1.989124e-03  0 
 -1.989124e-03  3.395053e-03  0 
 0  0  0 

TENSORS element_stresses FLOAT
 -2.072046e-02  -1.989102e-03  0 
 -1.989102e-03  -3.395049e-03  0 
 0  0  0 

 -7.757865e-02  -2.493924e-02  0 
 -2.493924e-02  1.099699e-03  0 
 0  0  0 

 -3.287783e-10  -2.393238e-03  0 
 -2.393238e-03  1.033750e-08  0 
 0  0  0 

 7.757863e-02  -2.493930e-02  0 
 -2.493930e-02  -1.099681e-03  0 
 0  0  0 

 2.072048e-02  -1.989124e-03  0 
 -1.989124e-03  3.395053e-03  0 
 0  0  0 

