# vtk DataFile Version 3.1
this is an vtk file created by FEMAC
ASCII
DATASET UNSTRUCTURED_GRID
POINTS 12 FLOAT
1.500000 0.000000 0.000000
2.000000 0.000000 0.000000
1.500000 0.200000 0.000000
1.500000 0.400000 0.000000
1.500000 0.600000 0.000000
1.500000 0.800000 0.000000
1.500000 1.000000 0.000000
2.000000 0.200000 0.000000
2.000000 0.400000 0.000000
2.000000 0.600000 0.000000
2.000000 0.800000 0.000000
2.000000 1.000000 0.000000
CELLS 5 25 
4 0 1 7 2
4 2 7 8 3
4 3 8 9 4
4 4  9 10  5
4 5 10 11  6
CELL_TYPES 5
9 9 9 9 9 
POINT_DATA 12
VECTORS displacement_ITER1 FLOAT
 -2.140333e-03  -3.617428e-03  0 
 -3.411944e-03  -6.435481e-03  0 
 -1.493095e-03  -3.598367e-03  0 
 -4.626222e-04  -3.559071e-03  0 
 5.265956e-04  -3.559228e-03  0 
 1.557049e-03  -3.598566e-03  0 
 2.203459e-03  -3.618046e-03  0 
 -1.869266e-03  -6.453239e-03  0 
 -6.433229e-04  -6.432156e-03  0 
 7.072683e-04  -6.432314e-03  0 
 1.933231e-03  -6.453437e-03  0 
 3.476737e-03  -6.436099e-03  0 
VECTORS displacement_ITER2 FLOAT
 -2.131196e-03  -3.595640e-03  0 
 -3.345651e-03  -6.382732e-03  0 
 -1.459001e-03  -3.573874e-03  0 
 -4.610554e-04  -3.529354e-03  0 
 4.746861e-04  -3.512852e-03  0 
 1.484187e-03  -3.551466e-03  0 
 2.216050e-03  -3.555344e-03  0 
 -1.850696e-03  -6.358104e-03  0 
 -6.481744e-04  -6.333947e-03  0 
 6.611642e-04  -6.346406e-03  0 
 1.878589e-03  -6.374572e-03  0 
 3.384512e-03  -6.409084e-03  0 
VECTORS displacement_ITER3 FLOAT
 -2.187318e-03  -3.521030e-03  0 
 -3.314558e-03  -6.383023e-03  0 
 -1.423082e-03  -3.509270e-03  0 
 -4.209132e-04  -3.468191e-03  0 
 4.865395e-04  -3.500491e-03  0 
 1.463373e-03  -3.545557e-03  0 
 2.168743e-03  -3.586275e-03  0 
 -1.827944e-03  -6.320400e-03  0 
 -6.122948e-04  -6.289821e-03  0 
 6.777697e-04  -6.263372e-03  0 
 1.867817e-03  -6.290560e-03  0 
 3.316041e-03  -6.330804e-03  0 
VECTORS displacement_ITER4 FLOAT
 -2.146851e-03  -3.575929e-03  0 
 -3.262361e-03  -6.319943e-03  0 
 -1.420104e-03  -3.527329e-03  0 
 -4.390505e-04  -3.483138e-03  0 
 4.674800e-04  -3.469393e-03  0 
 1.460863e-03  -3.512036e-03  0 
 2.208681e-03  -3.546771e-03  0 
 -1.827642e-03  -6.284371e-03  0 
 -6.320557e-04  -6.256535e-03  0 
 6.601120e-04  -6.273071e-03  0 
 1.868388e-03  -6.302789e-03  0 
 3.335400e-03  -6.355382e-03  0 
VECTORS displacement_ITER5 FLOAT
 -2.152954e-03  -3.568781e-03  0 
 -3.269301e-03  -6.329373e-03  0 
 -1.417926e-03  -3.519826e-03  0 
 -4.318003e-04  -3.476374e-03  0 
 4.748932e-04  -3.474085e-03  0 
 1.461318e-03  -3.517385e-03  0 
 2.202897e-03  -3.565103e-03  0 
 -1.826176e-03  -6.290149e-03  0 
 -6.255974e-04  -6.261452e-03  0 
 6.680550e-04  -6.262807e-03  0 
 1.870461e-03  -6.291378e-03  0 
 3.312630e-03  -6.330508e-03  0 
VECTORS displacement_ITER6 FLOAT
 -2.156855e-03  -3.565246e-03  0 
 -3.267793e-03  -6.331755e-03  0 
 -1.416525e-03  -3.518754e-03  0 
 -4.296846e-04  -3.475618e-03  0 
 4.760715e-04  -3.476769e-03  0 
 1.460608e-03  -3.519971e-03  0 
 2.200626e-03  -3.568969e-03  0 
 -1.825189e-03  -6.291455e-03  0 
 -6.235758e-04  -6.262701e-03  0 
 6.693263e-04  -6.261024e-03  0 
 1.870015e-03  -6.289627e-03  0 
 3.309359e-03  -6.327412e-03  0 
VECTORS displacement_ITER7 FLOAT
 -2.157297e-03  -3.565575e-03  0 
 -3.264513e-03  -6.330257e-03  0 
 -1.415324e-03  -3.520107e-03  0 
 -4.296432e-04  -3.477186e-03  0 
 4.748684e-04  -3.477385e-03  0 
 1.459137e-03  -3.520320e-03  0 
 2.201917e-03  -3.566725e-03  0 
 -1.824235e-03  -6.290516e-03  0 
 -6.234663e-04  -6.261770e-03  0 
 6.680129e-04  -6.261257e-03  0 
 1.868768e-03  -6.289987e-03  0 
 3.309127e-03  -6.329716e-03  0 
VECTORS displacement_ITER8 FLOAT
 -2.156605e-03  -3.566308e-03  0 
 -3.263887e-03  -6.329071e-03  0 
 -1.415093e-03  -3.520506e-03  0 
 -4.300118e-04  -3.477608e-03  0 
 4.744170e-04  -3.476964e-03  0 
 1.458635e-03  -3.519873e-03  0 
 2.202376e-03  -3.565714e-03  0 
 -1.824010e-03  -6.289687e-03  0 
 -6.236806e-04  -6.260963e-03  0 
 6.673692e-04  -6.261080e-03  0 
 1.868330e-03  -6.289754e-03  0 
 3.308789e-03  -6.329777e-03  0 
VECTORS displacement_ITER9 FLOAT
 -2.155956e-03  -3.566457e-03  0 
 -3.264087e-03  -6.327984e-03  0 
 -1.415077e-03  -3.520116e-03  0 
 -4.304227e-04  -3.477171e-03  0 
 4.745697e-04  -3.476278e-03  0 
 1.458426e-03  -3.519288e-03  0 
 2.201574e-03  -3.565873e-03  0 
 -1.823945e-03  -6.288632e-03  0 
 -6.237393e-04  -6.259981e-03  0 
 6.671418e-04  -6.260123e-03  0 
 1.868100e-03  -6.288650e-03  0 
 3.308235e-03  -6.328036e-03  0 
VECTORS displacement_ITER10 FLOAT
 -2.155866e-03  -3.566174e-03  0 
 -3.264336e-03  -6.327874e-03  0 
 -1.415086e-03  -3.519837e-03  0 
 -4.305115e-04  -3.476873e-03  0 
 4.747953e-04  -3.476135e-03  0 
 1.458448e-03  -3.519186e-03  0 
 2.201091e-03  -3.565944e-03  0 
 -1.823925e-03  -6.288351e-03  0 
 -6.236505e-04  -6.259724e-03  0 
 6.671926e-04  -6.259693e-03  0 
 1.868080e-03  -6.288194e-03  0 
 3.308341e-03  -6.327576e-03  0 
VECTORS displacement_ITER11 FLOAT
 -2.155855e-03  -3.566027e-03  0 
 -3.264523e-03  -6.328073e-03  0 
 -1.415089e-03  -3.519809e-03  0 
 -4.305126e-04  -3.476846e-03  0 
 4.749304e-04  -3.476211e-03  0 
 1.458521e-03  -3.519258e-03  0 
 2.201036e-03  -3.565800e-03  0 
 -1.823909e-03  -6.288427e-03  0 
 -6.235684e-04  -6.259788e-03  0 
 6.672505e-04  -6.259663e-03  0 
 1.868122e-03  -6.288190e-03  0 
 3.308670e-03  -6.327860e-03  0 
VECTORS displacement_ITER12 FLOAT
 -2.155847e-03  -3.566071e-03  0 
 -3.264609e-03  -6.328208e-03  0 
 -1.415103e-03  -3.519875e-03  0 
 -4.305184e-04  -3.476917e-03  0 
 4.749863e-04  -3.476297e-03  0 
 1.458579e-03  -3.519332e-03  0 
 2.201074e-03  -3.565812e-03  0 
 -1.823913e-03  -6.288550e-03  0 
 -6.235445e-04  -6.259900e-03  0 
 6.672783e-04  -6.259764e-03  0 
 1.868168e-03  -6.288306e-03  0 
 3.308821e-03  -6.328035e-03  0 
VECTORS displacement_ITER13 FLOAT
 -2.155854e-03  -3.566185e-03  0 
 -3.264645e-03  -6.328291e-03  0 
 -1.415128e-03  -3.519967e-03  0 
 -4.305392e-04  -3.477015e-03  0 
 4.750125e-04  -3.476382e-03  0 
 1.458630e-03  -3.519404e-03  0 
 2.201111e-03  -3.565938e-03  0 
 -1.823936e-03  -6.288671e-03  0 
 -6.235530e-04  -6.260017e-03  0 
 6.672945e-04  -6.259907e-03  0 
 1.868211e-03  -6.288455e-03  0 
 3.308871e-03  -6.328098e-03  0 
VECTORS displacement_ITER14 FLOAT
 -2.155875e-03  -3.566239e-03  0 
 -3.264667e-03  -6.328342e-03  0 
 -1.415151e-03  -3.520021e-03  0 
 -4.305597e-04  -3.477075e-03  0 
 4.750257e-04  -3.476442e-03  0 
 1.458657e-03  -3.519457e-03  0 
 2.201129e-03  -3.566006e-03  0 
 -1.823958e-03  -6.288745e-03  0 
 -6.235650e-04  -6.260089e-03  0 
 6.673034e-04  -6.259995e-03  0 
 1.868232e-03  -6.288545e-03  0 
 3.308891e-03  -6.328141e-03  0 
VECTORS displacement_ITER15 FLOAT
 -2.155883e-03  -3.566215e-03  0 
 -3.264676e-03  -6.328349e-03  0 
 -1.415157e-03  -3.520018e-03  0 
 -4.305659e-04  -3.477074e-03  0 
 4.750281e-04  -3.476452e-03  0 
 1.458655e-03  -3.519465e-03  0 
 2.201132e-03  -3.565976e-03  0 
 -1.823962e-03  -6.288745e-03  0 
 -6.235674e-04  -6.260091e-03  0 
 6.673045e-04  -6.259991e-03  0 
 1.868228e-03  -6.288542e-03  0 
 3.308897e-03  -6.328166e-03  0 
VECTORS displacement_ITER16 FLOAT
 -2.155877e-03  -3.566212e-03  0 
 -3.264676e-03  -6.328344e-03  0 
 -1.415157e-03  -3.520017e-03  0 
 -4.305674e-04  -3.477073e-03  0 
 4.750301e-04  -3.476452e-03  0 
 1.458655e-03  -3.519463e-03  0 
 2.201129e-03  -3.565976e-03  0 
 -1.823962e-03  -6.288741e-03  0 
 -6.235679e-04  -6.260086e-03  0 
 6.673055e-04  -6.259986e-03  0 
 1.868227e-03  -6.288538e-03  0 
 3.308894e-03  -6.328158e-03  0 
VECTORS displacement_ITER17 FLOAT
 -2.155873e-03  -3.566214e-03  0 
 -3.264676e-03  -6.328345e-03  0 
 -1.415157e-03  -3.520019e-03  0 
 -4.305680e-04  -3.477075e-03  0 
 4.750307e-04  -3.476455e-03  0 
 1.458654e-03  -3.519466e-03  0 
 2.201129e-03  -3.565981e-03  0 
 -1.823961e-03  -6.288741e-03  0 
 -6.235678e-04  -6.260086e-03  0 
 6.673061e-04  -6.259987e-03  0 
 1.868227e-03  -6.288539e-03  0 
 3.308892e-03  -6.328158e-03  0 
VECTORS displacement_ITER18 FLOAT
 -2.155873e-03  -3.566214e-03  0 
 -3.264676e-03  -6.328346e-03  0 
 -1.415156e-03  -3.520020e-03  0 
 -4.305679e-04  -3.477077e-03  0 
 4.750306e-04  -3.476459e-03  0 
 1.458654e-03  -3.519469e-03  0 
 2.201130e-03  -3.565982e-03  0 
 -1.823961e-03  -6.288743e-03  0 
 -6.235678e-04  -6.260087e-03  0 
 6.673062e-04  -6.259988e-03  0 
 1.868226e-03  -6.288541e-03  0 
 3.308893e-03  -6.328162e-03  0 
VECTORS displacement_ITER19 FLOAT
 -2.155874e-03  -3.566214e-03  0 
 -3.264676e-03  -6.328346e-03  0 
 -1.415156e-03  -3.520021e-03  0 
 -4.305679e-04  -3.477078e-03  0 
 4.750307e-04  -3.476460e-03  0 
 1.458654e-03  -3.519470e-03  0 
 2.201131e-03  -3.565985e-03  0 
 -1.823961e-03  -6.288743e-03  0 
 -6.235678e-04  -6.260088e-03  0 
 6.673064e-04  -6.259989e-03  0 
 1.868226e-03  -6.288542e-03  0 
 3.308894e-03  -6.328162e-03  0 
VECTORS displacement_ITER20 FLOAT
 -2.155873e-03  -3.566215e-03  0 
 -3.264676e-03  -6.328347e-03  0 
 -1.415156e-03  -3.520022e-03  0 
 -4.305677e-04  -3.477078e-03  0 
 4.750307e-04  -3.476460e-03  0 
 1.458654e-03  -3.519471e-03  0 
 2.201131e-03  -3.565985e-03  0 
 -1.823960e-03  -6.288744e-03  0 
 -6.235677e-04  -6.260089e-03  0 
 6.673065e-04  -6.259989e-03  0 
 1.868226e-03  -6.288542e-03  0 
 3.308893e-03  -6.328162e-03  0 
VECTORS displacement_ITER21 FLOAT
 -2.155873e-03  -3.566215e-03  0 
 -3.264676e-03  -6.328347e-03  0 
 -1.415156e-03  -3.520022e-03  0 
 -4.305678e-04  -3.477078e-03  0 
 4.750307e-04  -3.476460e-03  0 
 1.458654e-03  -3.519471e-03  0 
 2.201131e-03  -3.565985e-03  0 
 -1.823960e-03  -6.288744e-03  0 
 -6.235678e-04  -6.260089e-03  0 
 6.673065e-04  -6.259989e-03  0 
 1.868226e-03  -6.288542e-03  0 
 3.308893e-03  -6.328162e-03  0 
VECTORS displacement_ITER22 FLOAT
 -2.155873e-03  -3.566215e-03  0 
 -3.264676e-03  -6.328347e-03  0 
 -1.415156e-03  -3.520022e-03  0 
 -4.305678e-04  -3.477078e-03  0 
 4.750307e-04  -3.476460e-03  0 
 1.458654e-03  -3.519471e-03  0 
 2.201131e-03  -3.565985e-03  0 
 -1.823960e-03  -6.288744e-03  0 
 -6.235678e-04  -6.260089e-03  0 
 6.673065e-04  -6.259989e-03  0 
 1.868226e-03  -6.288542e-03  0 
 3.308893e-03  -6.328162e-03  0 
VECTORS displacement_ITER23 FLOAT
 -2.155873e-03  -3.566215e-03  0 
 -3.264676e-03  -6.328347e-03  0 
 -1.415156e-03  -3.520022e-03  0 
 -4.305678e-04  -3.477078e-03  0 
 4.750307e-04  -3.476461e-03  0 
 1.458654e-03  -3.519471e-03  0 
 2.201131e-03  -3.565985e-03  0 
 -1.823960e-03  -6.288744e-03  0 
 -6.235678e-04  -6.260089e-03  0 
 6.673065e-04  -6.259990e-03  0 
 1.868226e-03  -6.288542e-03  0 
 3.308893e-03  -6.328162e-03  0 
VECTORS displacement_ITER24 FLOAT
 -2.155873e-03  -3.566215e-03  0 
 -3.264676e-03  -6.328347e-03  0 
 -1.415156e-03  -3.520022e-03  0 
 -4.305678e-04  -3.477078e-03  0 
 4.750307e-04  -3.476461e-03  0 
 1.458654e-03  -3.519471e-03  0 
 2.201131e-03  -3.565986e-03  0 
 -1.823960e-03  -6.288744e-03  0 
 -6.235678e-04  -6.260089e-03  0 
 6.673065e-04  -6.259990e-03  0 
 1.868226e-03  -6.288542e-03  0 
 3.308893e-03  -6.328162e-03  0 
VECTORS displacement_ITER25 FLOAT
 -2.155873e-03  -3.566215e-03  0 
 -3.264676e-03  -6.328347e-03  0 
 -1.415156e-03  -3.520022e-03  0 
 -4.305678e-04  -3.477078e-03  0 
 4.750307e-04  -3.476461e-03  0 
 1.458654e-03  -3.519471e-03  0 
 2.201131e-03  -3.565986e-03  0 
 -1.823960e-03  -6.288744e-03  0 
 -6.235678e-04  -6.260089e-03  0 
 6.673065e-04  -6.259990e-03  0 
 1.868226e-03  -6.288542e-03  0 
 3.308893e-03  -6.328162e-03  0 
CELL_DATA 5
TENSORS element_stresses FLOAT
 -1.596989e-01  -5.943981e-03  0 
 -5.943981e-03  -2.646066e-02  0 
 0  0  0 

 -6.023130e-01  -6.867658e-02  0 
 -6.867658e-02  -1.696177e-03  0 
 0  0  0 

 -2.049771e-05  -5.796706e-03  0 
 -5.796706e-03  1.730767e-04  0 
 0  0  0 

 6.023913e-01  -7.018762e-02  0 
 -7.018762e-02  1.810076e-03  0 
 0  0  0 

 1.596411e-01  -5.645114e-03  0 
 -5.645114e-03  2.635870e-02  0 
 0  0  0 

TENSORS element_stresses FLOAT
 -1.596989e-01  -5.943981e-03  0 
 -5.943981e-03  -2.646066e-02  0 
 0  0  0 

 -6.023130e-01  -6.867658e-02  0 
 -6.867658e-02  -1.696177e-03  0 
 0  0  0 

 -2.049771e-05  -5.796706e-03  0 
 -5.796706e-03  1.730767e-04  0 
 0  0  0 

 6.023913e-01  -7.018762e-02  0 
 -7.018762e-02  1.810076e-03  0 
 0  0  0 

 1.596411e-01  -5.645114e-03  0 
 -5.645114e-03  2.635870e-02  0 
 0  0  0 

