# vtk DataFile Version 3.1
this is an vtk file created by FEMAC
ASCII
DATASET UNSTRUCTURED_GRID
POINTS 12 FLOAT
6.000000 0.000000 0.000000
6.500000 0.000000 0.000000
6.000000 0.200000 0.000000
6.000000 0.400000 0.000000
6.000000 0.600000 0.000000
6.000000 0.800000 0.000000
6.000000 1.000000 0.000000
6.500000 0.200000 0.000000
6.500000 0.400000 0.000000
6.500000 0.600000 0.000000
6.500000 0.800000 0.000000
6.500000 1.000000 0.000000
CELLS 5 25 
4 0 1 7 2
4 2 7 8 3
4 3 8 9 4
4 4  9 10  5
4 5 10 11  6
CELL_TYPES 5
9 9 9 9 9 
POINT_DATA 12
VECTORS displacement_ITER1 FLOAT
 -5.748067e-03  -4.562200e-02  0 
 -5.768015e-03  -5.142804e-02  0 
 -3.420923e-03  -4.561643e-02  0 
 -1.119812e-03  -4.560916e-02  0 
 1.186134e-03  -4.560914e-02  0 
 3.487208e-03  -4.561598e-02  0 
 5.814260e-03  -4.562151e-02  0 
 -3.449704e-03  -5.142512e-02  0 
 -1.128283e-03  -5.141640e-02  0 
 1.194453e-03  -5.141637e-02  0 
 3.515911e-03  -5.142467e-02  0 
 5.834314e-03  -5.142755e-02  0 
VECTORS displacement_ITER2 FLOAT
 -5.594865e-03  -4.452878e-02  0 
 -5.613829e-03  -5.016337e-02  0 
 -3.336153e-03  -4.452420e-02  0 
 -1.105764e-03  -4.452336e-02  0 
 1.131595e-03  -4.452337e-02  0 
 3.361981e-03  -4.452434e-02  0 
 5.620726e-03  -4.452894e-02  0 
 -3.366094e-03  -5.016039e-02  0 
 -1.113628e-03  -5.015425e-02  0 
 1.139493e-03  -5.015425e-02  0 
 3.391962e-03  -5.016053e-02  0 
 5.639664e-03  -5.016353e-02  0 
VECTORS displacement_ITER3 FLOAT
 -5.487726e-03  -4.385309e-02  0 
 -5.506070e-03  -4.938576e-02  0 
 -3.269418e-03  -4.384884e-02  0 
 -1.080548e-03  -4.385036e-02  0 
 1.116853e-03  -4.385037e-02  0 
 3.305728e-03  -4.384910e-02  0 
 5.524092e-03  -4.385338e-02  0 
 -3.300104e-03  -4.938299e-02  0 
 -1.088070e-03  -4.937902e-02  0 
 1.124439e-03  -4.937902e-02  0 
 3.336474e-03  -4.938325e-02  0 
 5.542388e-03  -4.938604e-02  0 
VECTORS displacement_ITER4 FLOAT
 -5.463792e-03  -4.368325e-02  0 
 -5.482075e-03  -4.919389e-02  0 
 -3.253910e-03  -4.367873e-02  0 
 -1.073301e-03  -4.367840e-02  0 
 1.116367e-03  -4.367840e-02  0 
 3.296974e-03  -4.367886e-02  0 
 5.506879e-03  -4.368339e-02  0 
 -3.284782e-03  -4.919139e-02  0 
 -1.080802e-03  -4.918831e-02  0 
 1.123901e-03  -4.918832e-02  0 
 3.327879e-03  -4.919152e-02  0 
 5.525136e-03  -4.919403e-02  0 
VECTORS displacement_ITER5 FLOAT
 -5.455460e-03  -4.361402e-02  0 
 -5.473752e-03  -4.911590e-02  0 
 -3.248903e-03  -4.360936e-02  0 
 -1.071343e-03  -4.360738e-02  0 
 1.115606e-03  -4.360738e-02  0 
 3.293163e-03  -4.360940e-02  0 
 5.499728e-03  -4.361407e-02  0 
 -3.279837e-03  -4.911353e-02  0 
 -1.078827e-03  -4.911091e-02  0 
 1.123101e-03  -4.911092e-02  0 
 3.324108e-03  -4.911357e-02  0 
 5.518011e-03  -4.911594e-02  0 
VECTORS displacement_ITER6 FLOAT
 -5.453184e-03  -4.359627e-02  0 
 -5.471495e-03  -4.909557e-02  0 
 -3.247657e-03  -4.359161e-02  0 
 -1.070983e-03  -4.358897e-02  0 
 1.115226e-03  -4.358897e-02  0 
 3.291896e-03  -4.359162e-02  0 
 5.497427e-03  -4.359628e-02  0 
 -3.278587e-03  -4.909321e-02  0 
 -1.078426e-03  -4.909061e-02  0 
 1.122668e-03  -4.909061e-02  0 
 3.322829e-03  -4.909322e-02  0 
 5.515738e-03  -4.909558e-02  0 
VECTORS displacement_ITER7 FLOAT
 -5.451819e-03  -4.358532e-02  0 
 -5.470165e-03  -4.908331e-02  0 
 -3.246871e-03  -4.358072e-02  0 
 -1.070732e-03  -4.357781e-02  0 
 1.115006e-03  -4.357781e-02  0 
 3.291145e-03  -4.358071e-02  0 
 5.496092e-03  -4.358531e-02  0 
 -3.277781e-03  -4.908091e-02  0 
 -1.078101e-03  -4.907807e-02  0 
 1.122370e-03  -4.907807e-02  0 
 3.322052e-03  -4.908090e-02  0 
 5.514442e-03  -4.908330e-02  0 
VECTORS displacement_ITER8 FLOAT
 -5.452141e-03  -4.358345e-02  0 
 -5.470513e-03  -4.908193e-02  0 
 -3.247023e-03  -4.357886e-02  0 
 -1.070792e-03  -4.357620e-02  0 
 1.114985e-03  -4.357620e-02  0 
 3.291215e-03  -4.357884e-02  0 
 5.496331e-03  -4.358344e-02  0 
 -3.277921e-03  -4.907952e-02  0 
 -1.078111e-03  -4.907642e-02  0 
 1.122299e-03  -4.907642e-02  0 
 3.322111e-03  -4.907951e-02  0 
 5.514705e-03  -4.908192e-02  0 
VECTORS displacement_ITER9 FLOAT
 -5.453568e-03  -4.358434e-02  0 
 -5.471981e-03  -4.908439e-02  0 
 -3.247857e-03  -4.357974e-02  0 
 -1.071158e-03  -4.357758e-02  0 
 1.115014e-03  -4.357758e-02  0 
 3.291720e-03  -4.357975e-02  0 
 5.497439e-03  -4.358436e-02  0 
 -3.278743e-03  -4.908196e-02  0 
 -1.078394e-03  -4.907861e-02  0 
 1.122262e-03  -4.907861e-02  0 
 3.322611e-03  -4.908196e-02  0 
 5.515846e-03  -4.908439e-02  0 
VECTORS displacement_ITER10 FLOAT
 -5.454118e-03  -4.358602e-02  0 
 -5.472537e-03  -4.908657e-02  0 
 -3.248195e-03  -4.358140e-02  0 
 -1.071264e-03  -4.357925e-02  0 
 1.115173e-03  -4.357924e-02  0 
 3.292097e-03  -4.358140e-02  0 
 5.498009e-03  -4.358601e-02  0 
 -3.279085e-03  -4.908414e-02  0 
 -1.078479e-03  -4.908087e-02  0 
 1.122382e-03  -4.908087e-02  0 
 3.322986e-03  -4.908414e-02  0 
 5.516431e-03  -4.908657e-02  0 
VECTORS displacement_ITER11 FLOAT
 -5.454242e-03  -4.358755e-02  0 
 -5.472661e-03  -4.908807e-02  0 
 -3.248345e-03  -4.358294e-02  0 
 -1.071362e-03  -4.358060e-02  0 
 1.115215e-03  -4.358061e-02  0 
 3.292203e-03  -4.358295e-02  0 
 5.498112e-03  -4.358757e-02  0 
 -3.279241e-03  -4.908564e-02  0 
 -1.078562e-03  -4.908256e-02  0 
 1.122420e-03  -4.908255e-02  0 
 3.323102e-03  -4.908564e-02  0 
 5.516528e-03  -4.908806e-02  0 
VECTORS displacement_ITER12 FLOAT
 -5.454122e-03  -4.358816e-02  0 
 -5.472537e-03  -4.908853e-02  0 
 -3.248265e-03  -4.358354e-02  0 
 -1.071296e-03  -4.358111e-02  0 
 1.115301e-03  -4.358111e-02  0 
 3.292270e-03  -4.358354e-02  0 
 5.498126e-03  -4.358816e-02  0 
 -3.279170e-03  -4.908611e-02  0 
 -1.078496e-03  -4.908310e-02  0 
 1.122504e-03  -4.908310e-02  0 
 3.323176e-03  -4.908611e-02  0 
 5.516539e-03  -4.908853e-02  0 
VECTORS displacement_ITER13 FLOAT
 -5.453995e-03  -4.358817e-02  0 
 -5.472403e-03  -4.908840e-02  0 
 -3.248185e-03  -4.358355e-02  0 
 -1.071269e-03  -4.358109e-02  0 
 1.115282e-03  -4.358109e-02  0 
 3.292195e-03  -4.358354e-02  0 
 5.498002e-03  -4.358816e-02  0 
 -3.279101e-03  -4.908599e-02  0 
 -1.078474e-03  -4.908297e-02  0 
 1.122481e-03  -4.908296e-02  0 
 3.323109e-03  -4.908598e-02  0 
 5.516414e-03  -4.908840e-02  0 
VECTORS displacement_ITER14 FLOAT
 -5.453886e-03  -4.358797e-02  0 
 -5.472293e-03  -4.908810e-02  0 
 -3.248113e-03  -4.358335e-02  0 
 -1.071249e-03  -4.358090e-02  0 
 1.115248e-03  -4.358090e-02  0 
 3.292113e-03  -4.358335e-02  0 
 5.497887e-03  -4.358797e-02  0 
 -3.279035e-03  -4.908569e-02  0 
 -1.078451e-03  -4.908264e-02  0 
 1.122452e-03  -4.908264e-02  0 
 3.323035e-03  -4.908569e-02  0 
 5.516293e-03  -4.908810e-02  0 
VECTORS displacement_ITER15 FLOAT
 -5.453855e-03  -4.358783e-02  0 
 -5.472261e-03  -4.908795e-02  0 
 -3.248089e-03  -4.358321e-02  0 
 -1.071239e-03  -4.358077e-02  0 
 1.115240e-03  -4.358077e-02  0 
 3.292090e-03  -4.358321e-02  0 
 5.497856e-03  -4.358783e-02  0 
 -3.279012e-03  -4.908553e-02  0 
 -1.078442e-03  -4.908247e-02  0 
 1.122443e-03  -4.908247e-02  0 
 3.323013e-03  -4.908553e-02  0 
 5.516262e-03  -4.908795e-02  0 
VECTORS displacement_ITER16 FLOAT
 -5.453856e-03  -4.358780e-02  0 
 -5.472262e-03  -4.908792e-02  0 
 -3.248089e-03  -4.358318e-02  0 
 -1.071240e-03  -4.358075e-02  0 
 1.115237e-03  -4.358075e-02  0 
 3.292087e-03  -4.358318e-02  0 
 5.497853e-03  -4.358780e-02  0 
 -3.279012e-03  -4.908550e-02  0 
 -1.078442e-03  -4.908244e-02  0 
 1.122439e-03  -4.908244e-02  0 
 3.323009e-03  -4.908550e-02  0 
 5.516259e-03  -4.908792e-02  0 
VECTORS displacement_ITER17 FLOAT
 -5.453856e-03  -4.358780e-02  0 
 -5.472263e-03  -4.908791e-02  0 
 -3.248090e-03  -4.358318e-02  0 
 -1.071240e-03  -4.358075e-02  0 
 1.115238e-03  -4.358075e-02  0 
 3.292088e-03  -4.358318e-02  0 
 5.497855e-03  -4.358780e-02  0 
 -3.279012e-03  -4.908550e-02  0 
 -1.078442e-03  -4.908244e-02  0 
 1.122440e-03  -4.908244e-02  0 
 3.323011e-03  -4.908550e-02  0 
 5.516261e-03  -4.908791e-02  0 
VECTORS displacement_ITER18 FLOAT
 -5.453858e-03  -4.358780e-02  0 
 -5.472264e-03  -4.908792e-02  0 
 -3.248091e-03  -4.358318e-02  0 
 -1.071241e-03  -4.358075e-02  0 
 1.115239e-03  -4.358075e-02  0 
 3.292090e-03  -4.358318e-02  0 
 5.497856e-03  -4.358780e-02  0 
 -3.279013e-03  -4.908550e-02  0 
 -1.078442e-03  -4.908245e-02  0 
 1.122441e-03  -4.908245e-02  0 
 3.323012e-03  -4.908550e-02  0 
 5.516262e-03  -4.908792e-02  0 
VECTORS displacement_ITER19 FLOAT
 -5.453858e-03  -4.358780e-02  0 
 -5.472264e-03  -4.908792e-02  0 
 -3.248091e-03  -4.358318e-02  0 
 -1.071240e-03  -4.358075e-02  0 
 1.115239e-03  -4.358075e-02  0 
 3.292090e-03  -4.358318e-02  0 
 5.497857e-03  -4.358780e-02  0 
 -3.279013e-03  -4.908550e-02  0 
 -1.078442e-03  -4.908245e-02  0 
 1.122441e-03  -4.908245e-02  0 
 3.323013e-03  -4.908550e-02  0 
 5.516263e-03  -4.908792e-02  0 
VECTORS displacement_ITER20 FLOAT
 -5.453858e-03  -4.358780e-02  0 
 -5.472264e-03  -4.908792e-02  0 
 -3.248091e-03  -4.358318e-02  0 
 -1.071240e-03  -4.358075e-02  0 
 1.115239e-03  -4.358075e-02  0 
 3.292090e-03  -4.358318e-02  0 
 5.497857e-03  -4.358780e-02  0 
 -3.279013e-03  -4.908550e-02  0 
 -1.078442e-03  -4.908245e-02  0 
 1.122441e-03  -4.908245e-02  0 
 3.323013e-03  -4.908550e-02  0 
 5.516264e-03  -4.908792e-02  0 
VECTORS displacement_ITER21 FLOAT
 -5.453858e-03  -4.358780e-02  0 
 -5.472264e-03  -4.908792e-02  0 
 -3.248091e-03  -4.358318e-02  0 
 -1.071240e-03  -4.358075e-02  0 
 1.115239e-03  -4.358075e-02  0 
 3.292090e-03  -4.358318e-02  0 
 5.497857e-03  -4.358780e-02  0 
 -3.279014e-03  -4.908550e-02  0 
 -1.078442e-03  -4.908245e-02  0 
 1.122441e-03  -4.908245e-02  0 
 3.323013e-03  -4.908550e-02  0 
 5.516263e-03  -4.908792e-02  0 
VECTORS displacement_ITER22 FLOAT
 -5.453858e-03  -4.358780e-02  0 
 -5.472264e-03  -4.908792e-02  0 
 -3.248091e-03  -4.358318e-02  0 
 -1.071240e-03  -4.358075e-02  0 
 1.115239e-03  -4.358075e-02  0 
 3.292090e-03  -4.358318e-02  0 
 5.497857e-03  -4.358780e-02  0 
 -3.279014e-03  -4.908550e-02  0 
 -1.078442e-03  -4.908245e-02  0 
 1.122441e-03  -4.908245e-02  0 
 3.323013e-03  -4.908550e-02  0 
 5.516263e-03  -4.908792e-02  0 
VECTORS displacement_ITER23 FLOAT
 -5.453858e-03  -4.358780e-02  0 
 -5.472264e-03  -4.908792e-02  0 
 -3.248091e-03  -4.358318e-02  0 
 -1.071240e-03  -4.358075e-02  0 
 1.115239e-03  -4.358075e-02  0 
 3.292090e-03  -4.358318e-02  0 
 5.497857e-03  -4.358780e-02  0 
 -3.279014e-03  -4.908550e-02  0 
 -1.078442e-03  -4.908245e-02  0 
 1.122441e-03  -4.908245e-02  0 
 3.323013e-03  -4.908550e-02  0 
 5.516263e-03  -4.908792e-02  0 
VECTORS displacement_ITER24 FLOAT
 -5.453858e-03  -4.358780e-02  0 
 -5.472264e-03  -4.908792e-02  0 
 -3.248091e-03  -4.358318e-02  0 
 -1.071240e-03  -4.358075e-02  0 
 1.115239e-03  -4.358075e-02  0 
 3.292090e-03  -4.358318e-02  0 
 5.497857e-03  -4.358780e-02  0 
 -3.279014e-03  -4.908550e-02  0 
 -1.078442e-03  -4.908245e-02  0 
 1.122441e-03  -4.908245e-02  0 
 3.323013e-03  -4.908550e-02  0 
 5.516263e-03  -4.908792e-02  0 
VECTORS displacement_ITER25 FLOAT
 -5.453858e-03  -4.358780e-02  0 
 -5.472264e-03  -4.908792e-02  0 
 -3.248091e-03  -4.358318e-02  0 
 -1.071240e-03  -4.358075e-02  0 
 1.115239e-03  -4.358075e-02  0 
 3.292090e-03  -4.358318e-02  0 
 5.497857e-03  -4.358780e-02  0 
 -3.279014e-03  -4.908550e-02  0 
 -1.078442e-03  -4.908245e-02  0 
 1.122441e-03  -4.908245e-02  0 
 3.323013e-03  -4.908550e-02  0 
 5.516263e-03  -4.908792e-02  0 
CELL_DATA 5
TENSORS element_stresses FLOAT
 -4.840766e-02  -3.766406e-03  0 
 -3.766406e-03  3.069295e-03  0 
 0  0  0 

 -3.737469e-03  -4.651081e-03  0 
 -4.651081e-03  2.497807e-04  0 
 0  0  0 

 1.082650e-08  -2.691503e-02  0 
 -2.691503e-02  1.324324e-08  0 
 0  0  0 

 3.737470e-03  -4.651079e-03  0 
 -4.651079e-03  -2.497767e-04  0 
 0  0  0 

 4.840765e-02  -3.766405e-03  0 
 -3.766405e-03  -3.069293e-03  0 
 0  0  0 

TENSORS element_stresses FLOAT
 -4.840766e-02  -3.766406e-03  0 
 -3.766406e-03  3.069295e-03  0 
 0  0  0 

 -3.737469e-03  -4.651081e-03  0 
 -4.651081e-03  2.497807e-04  0 
 0  0  0 

 1.082650e-08  -2.691503e-02  0 
 -2.691503e-02  1.324324e-08  0 
 0  0  0 

 3.737470e-03  -4.651079e-03  0 
 -4.651079e-03  -2.497767e-04  0 
 0  0  0 

 4.840765e-02  -3.766405e-03  0 
 -3.766405e-03  -3.069293e-03  0 
 0  0  0 

