# vtk DataFile Version 3.1
this is an vtk file created by FEMAC
ASCII
DATASET UNSTRUCTURED_GRID
POINTS 12 FLOAT
7.000000 0.000000 0.000000
7.500000 0.000000 0.000000
7.000000 0.200000 0.000000
7.000000 0.400000 0.000000
7.000000 0.600000 0.000000
7.000000 0.800000 0.000000
7.000000 1.000000 0.000000
7.500000 0.200000 0.000000
7.500000 0.400000 0.000000
7.500000 0.600000 0.000000
7.500000 0.800000 0.000000
7.500000 1.000000 0.000000
CELLS 5 25 
4 0 1 7 2
4 2 7 8 3
4 3 8 9 4
4 4  9 10  5
4 5 10 11  6
CELL_TYPES 5
9 9 9 9 9 
POINT_DATA 12
VECTORS displacement_ITER1 FLOAT
 -5.818073e-03  -5.725484e-02  0 
 -5.822045e-03  -6.311009e-02  0 
 -3.475268e-03  -5.725329e-02  0 
 -1.136140e-03  -5.724762e-02  0 
 1.202971e-03  -5.724760e-02  0 
 3.542061e-03  -5.725283e-02  0 
 5.884774e-03  -5.725435e-02  0 
 -3.479551e-03  -6.311027e-02  0 
 -1.139278e-03  -6.311379e-02  0 
 1.205956e-03  -6.311377e-02  0 
 3.546266e-03  -6.310981e-02  0 
 5.888852e-03  -6.310960e-02  0 
VECTORS displacement_ITER2 FLOAT
 -5.659740e-03  -5.581797e-02  0 
 -5.663589e-03  -6.150138e-02  0 
 -3.385961e-03  -5.581680e-02  0 
 -1.119688e-03  -5.581929e-02  0 
 1.145479e-03  -5.581929e-02  0 
 3.411742e-03  -5.581697e-02  0 
 5.685524e-03  -5.581815e-02  0 
 -3.391161e-03  -6.150080e-02  0 
 -1.122617e-03  -6.149731e-02  0 
 1.148480e-03  -6.149735e-02  0 
 3.416997e-03  -6.150092e-02  0 
 5.689329e-03  -6.150155e-02  0 
VECTORS displacement_ITER3 FLOAT
 -5.549663e-03  -5.493879e-02  0 
 -5.553370e-03  -6.051894e-02  0 
 -3.317183e-03  -5.493770e-02  0 
 -1.093481e-03  -5.494231e-02  0 
 1.129428e-03  -5.494232e-02  0 
 3.353149e-03  -5.493796e-02  0 
 5.585691e-03  -5.493909e-02  0 
 -3.322920e-03  -6.051813e-02  0 
 -1.096312e-03  -6.051317e-02  0 
 1.132344e-03  -6.051319e-02  0 
 3.358953e-03  -6.051837e-02  0 
 5.589339e-03  -6.051921e-02  0 
VECTORS displacement_ITER4 FLOAT
 -5.525470e-03  -5.472586e-02  0 
 -5.529099e-03  -6.028259e-02  0 
 -3.302103e-03  -5.472460e-02  0 
 -1.086523e-03  -5.472631e-02  0 
 1.129355e-03  -5.472631e-02  0 
 3.344948e-03  -5.472471e-02  0 
 5.568351e-03  -5.472597e-02  0 
 -3.307839e-03  -6.028207e-02  0 
 -1.089338e-03  -6.028005e-02  0 
 1.132188e-03  -6.028006e-02  0 
 3.350707e-03  -6.028219e-02  0 
 5.571964e-03  -6.028271e-02  0 
VECTORS displacement_ITER5 FLOAT
 -5.517193e-03  -5.463994e-02  0 
 -5.520780e-03  -6.018739e-02  0 
 -3.297382e-03  -5.463860e-02  0 
 -1.084697e-03  -5.463842e-02  0 
 1.128913e-03  -5.463841e-02  0 
 3.341598e-03  -5.463863e-02  0 
 5.561420e-03  -5.463997e-02  0 
 -3.303064e-03  -6.018710e-02  0 
 -1.087483e-03  -6.018683e-02  0 
 1.131694e-03  -6.018683e-02  0 
 3.347284e-03  -6.018714e-02  0 
 5.565006e-03  -6.018743e-02  0 
VECTORS displacement_ITER6 FLOAT
 -5.515045e-03  -5.461742e-02  0 
 -5.518619e-03  -6.016250e-02  0 
 -3.296158e-03  -5.461609e-02  0 
 -1.084305e-03  -5.461554e-02  0 
 1.128565e-03  -5.461554e-02  0 
 3.340412e-03  -5.461610e-02  0 
 5.559301e-03  -5.461743e-02  0 
 -3.301815e-03  -6.016227e-02  0 
 -1.087060e-03  -6.016214e-02  0 
 1.131319e-03  -6.016214e-02  0 
 3.346071e-03  -6.016228e-02  0 
 5.562873e-03  -6.016251e-02  0 
VECTORS displacement_ITER7 FLOAT
 -5.513884e-03  -5.460391e-02  0 
 -5.517456e-03  -6.014799e-02  0 
 -3.295401e-03  -5.460262e-02  0 
 -1.084026e-03  -5.460208e-02  0 
 1.128330e-03  -5.460208e-02  0 
 3.339699e-03  -5.460261e-02  0 
 5.558180e-03  -5.460391e-02  0 
 -3.301057e-03  -6.014778e-02  0 
 -1.086745e-03  -6.014730e-02  0 
 1.131051e-03  -6.014730e-02  0 
 3.345355e-03  -6.014777e-02  0 
 5.561750e-03  -6.014799e-02  0 
VECTORS displacement_ITER8 FLOAT
 -5.514324e-03  -5.460277e-02  0 
 -5.517906e-03  -6.014740e-02  0 
 -3.295632e-03  -5.460147e-02  0 
 -1.084127e-03  -5.460107e-02  0 
 1.128317e-03  -5.460107e-02  0 
 3.339820e-03  -5.460147e-02  0 
 5.558512e-03  -5.460276e-02  0 
 -3.301309e-03  -6.014715e-02  0 
 -1.086831e-03  -6.014643e-02  0 
 1.131021e-03  -6.014643e-02  0 
 3.345496e-03  -6.014715e-02  0 
 5.562094e-03  -6.014740e-02  0 
VECTORS displacement_ITER9 FLOAT
 -5.515858e-03  -5.460636e-02  0 
 -5.519460e-03  -6.015255e-02  0 
 -3.296555e-03  -5.460506e-02  0 
 -1.084531e-03  -5.460485e-02  0 
 1.128411e-03  -5.460485e-02  0 
 3.340437e-03  -5.460506e-02  0 
 5.559742e-03  -5.460636e-02  0 
 -3.302272e-03  -6.015226e-02  0 
 -1.087207e-03  -6.015133e-02  0 
 1.131086e-03  -6.015133e-02  0 
 3.346154e-03  -6.015226e-02  0 
 5.563345e-03  -6.015255e-02  0 
VECTORS displacement_ITER10 FLOAT
 -5.516444e-03  -5.460911e-02  0 
 -5.520048e-03  -6.015583e-02  0 
 -3.296921e-03  -5.460780e-02  0 
 -1.084675e-03  -5.460759e-02  0 
 1.128518e-03  -5.460759e-02  0 
 3.340764e-03  -5.460780e-02  0 
 5.560287e-03  -5.460911e-02  0 
 -3.302648e-03  -6.015554e-02  0 
 -1.087335e-03  -6.015466e-02  0 
 1.131176e-03  -6.015466e-02  0 
 3.346491e-03  -6.015554e-02  0 
 5.563891e-03  -6.015583e-02  0 
VECTORS displacement_ITER11 FLOAT
 -5.516475e-03  -5.461078e-02  0 
 -5.520074e-03  -6.015746e-02  0 
 -3.296957e-03  -5.460947e-02  0 
 -1.084682e-03  -5.460918e-02  0 
 1.128592e-03  -5.460918e-02  0 
 3.340869e-03  -5.460947e-02  0 
 5.560390e-03  -5.461078e-02  0 
 -3.302682e-03  -6.015719e-02  0 
 -1.087327e-03  -6.015645e-02  0 
 1.131240e-03  -6.015645e-02  0 
 3.346596e-03  -6.015719e-02  0 
 5.563987e-03  -6.015746e-02  0 
VECTORS displacement_ITER12 FLOAT
 -5.516341e-03  -5.461122e-02  0 
 -5.519935e-03  -6.015776e-02  0 
 -3.296870e-03  -5.460991e-02  0 
 -1.084629e-03  -5.460957e-02  0 
 1.128637e-03  -5.460957e-02  0 
 3.340877e-03  -5.460991e-02  0 
 5.560344e-03  -5.461122e-02  0 
 -3.302599e-03  -6.015750e-02  0 
 -1.087271e-03  -6.015681e-02  0 
 1.131277e-03  -6.015682e-02  0 
 3.346604e-03  -6.015750e-02  0 
 5.563939e-03  -6.015776e-02  0 
VECTORS displacement_ITER13 FLOAT
 -5.516194e-03  -5.461096e-02  0 
 -5.519787e-03  -6.015734e-02  0 
 -3.296789e-03  -5.460965e-02  0 
 -1.084614e-03  -5.460929e-02  0 
 1.128598e-03  -5.460929e-02  0 
 3.340775e-03  -5.460965e-02  0 
 5.560184e-03  -5.461096e-02  0 
 -3.302522e-03  -6.015708e-02  0 
 -1.087252e-03  -6.015640e-02  0 
 1.131238e-03  -6.015639e-02  0 
 3.346509e-03  -6.015707e-02  0 
 5.563776e-03  -6.015733e-02  0 
VECTORS displacement_ITER14 FLOAT
 -5.516053e-03  -5.461053e-02  0 
 -5.519645e-03  -6.015679e-02  0 
 -3.296691e-03  -5.460922e-02  0 
 -1.084571e-03  -5.460887e-02  0 
 1.128588e-03  -5.460886e-02  0 
 3.340708e-03  -5.460922e-02  0 
 5.560068e-03  -5.461053e-02  0 
 -3.302430e-03  -6.015653e-02  0 
 -1.087208e-03  -6.015583e-02  0 
 1.131225e-03  -6.015583e-02  0 
 3.346446e-03  -6.015653e-02  0 
 5.563660e-03  -6.015679e-02  0 
VECTORS displacement_ITER15 FLOAT
 -5.516031e-03  -5.461034e-02  0 
 -5.519623e-03  -6.015657e-02  0 
 -3.296679e-03  -5.460902e-02  0 
 -1.084572e-03  -5.460868e-02  0 
 1.128570e-03  -5.460868e-02  0 
 3.340676e-03  -5.460902e-02  0 
 5.560028e-03  -5.461034e-02  0 
 -3.302418e-03  -6.015631e-02  0 
 -1.087209e-03  -6.015560e-02  0 
 1.131206e-03  -6.015560e-02  0 
 3.346415e-03  -6.015631e-02  0 
 5.563621e-03  -6.015657e-02  0 
VECTORS displacement_ITER16 FLOAT
 -5.516032e-03  -5.461031e-02  0 
 -5.519625e-03  -6.015654e-02  0 
 -3.296679e-03  -5.460899e-02  0 
 -1.084572e-03  -5.460865e-02  0 
 1.128571e-03  -5.460865e-02  0 
 3.340678e-03  -5.460899e-02  0 
 5.560031e-03  -5.461031e-02  0 
 -3.302417e-03  -6.015628e-02  0 
 -1.087207e-03  -6.015557e-02  0 
 1.131207e-03  -6.015557e-02  0 
 3.346416e-03  -6.015628e-02  0 
 5.563624e-03  -6.015654e-02  0 
VECTORS displacement_ITER17 FLOAT
 -5.516036e-03  -5.461030e-02  0 
 -5.519629e-03  -6.015654e-02  0 
 -3.296682e-03  -5.460899e-02  0 
 -1.084574e-03  -5.460865e-02  0 
 1.128572e-03  -5.460865e-02  0 
 3.340681e-03  -5.460899e-02  0 
 5.560034e-03  -5.461030e-02  0 
 -3.302419e-03  -6.015628e-02  0 
 -1.087209e-03  -6.015558e-02  0 
 1.131207e-03  -6.015558e-02  0 
 3.346418e-03  -6.015628e-02  0 
 5.563627e-03  -6.015654e-02  0 
VECTORS displacement_ITER18 FLOAT
 -5.516037e-03  -5.461031e-02  0 
 -5.519631e-03  -6.015655e-02  0 
 -3.296684e-03  -5.460900e-02  0 
 -1.084574e-03  -5.460866e-02  0 
 1.128573e-03  -5.460866e-02  0 
 3.340682e-03  -5.460900e-02  0 
 5.560036e-03  -5.461031e-02  0 
 -3.302421e-03  -6.015629e-02  0 
 -1.087209e-03  -6.015559e-02  0 
 1.131208e-03  -6.015559e-02  0 
 3.346420e-03  -6.015629e-02  0 
 5.563630e-03  -6.015655e-02  0 
VECTORS displacement_ITER19 FLOAT
 -5.516038e-03  -5.461031e-02  0 
 -5.519632e-03  -6.015656e-02  0 
 -3.296684e-03  -5.460900e-02  0 
 -1.084574e-03  -5.460866e-02  0 
 1.128573e-03  -5.460866e-02  0 
 3.340683e-03  -5.460900e-02  0 
 5.560037e-03  -5.461031e-02  0 
 -3.302421e-03  -6.015629e-02  0 
 -1.087209e-03  -6.015559e-02  0 
 1.131208e-03  -6.015559e-02  0 
 3.346420e-03  -6.015629e-02  0 
 5.563631e-03  -6.015656e-02  0 
VECTORS displacement_ITER20 FLOAT
 -5.516038e-03  -5.461031e-02  0 
 -5.519632e-03  -6.015656e-02  0 
 -3.296684e-03  -5.460900e-02  0 
 -1.084574e-03  -5.460866e-02  0 
 1.128573e-03  -5.460866e-02  0 
 3.340683e-03  -5.460900e-02  0 
 5.560037e-03  -5.461031e-02  0 
 -3.302421e-03  -6.015629e-02  0 
 -1.087209e-03  -6.015559e-02  0 
 1.131208e-03  -6.015559e-02  0 
 3.346420e-03  -6.015629e-02  0 
 5.563631e-03  -6.015656e-02  0 
VECTORS displacement_ITER21 FLOAT
 -5.516038e-03  -5.461031e-02  0 
 -5.519631e-03  -6.015656e-02  0 
 -3.296684e-03  -5.460900e-02  0 
 -1.084574e-03  -5.460866e-02  0 
 1.128573e-03  -5.460866e-02  0 
 3.340683e-03  -5.460900e-02  0 
 5.560037e-03  -5.461031e-02  0 
 -3.302421e-03  -6.015629e-02  0 
 -1.087209e-03  -6.015559e-02  0 
 1.131208e-03  -6.015559e-02  0 
 3.346420e-03  -6.015629e-02  0 
 5.563630e-03  -6.015656e-02  0 
VECTORS displacement_ITER22 FLOAT
 -5.516038e-03  -5.461031e-02  0 
 -5.519631e-03  -6.015656e-02  0 
 -3.296684e-03  -5.460900e-02  0 
 -1.084574e-03  -5.460866e-02  0 
 1.128573e-03  -5.460866e-02  0 
 3.340683e-03  -5.460900e-02  0 
 5.560037e-03  -5.461031e-02  0 
 -3.302421e-03  -6.015629e-02  0 
 -1.087209e-03  -6.015559e-02  0 
 1.131208e-03  -6.015559e-02  0 
 3.346420e-03  -6.015629e-02  0 
 5.563630e-03  -6.015656e-02  0 
VECTORS displacement_ITER23 FLOAT
 -5.516038e-03  -5.461031e-02  0 
 -5.519631e-03  -6.015656e-02  0 
 -3.296684e-03  -5.460900e-02  0 
 -1.084574e-03  -5.460866e-02  0 
 1.128573e-03  -5.460866e-02  0 
 3.340683e-03  -5.460900e-02  0 
 5.560037e-03  -5.461031e-02  0 
 -3.302421e-03  -6.015629e-02  0 
 -1.087209e-03  -6.015559e-02  0 
 1.131208e-03  -6.015559e-02  0 
 3.346420e-03  -6.015629e-02  0 
 5.563630e-03  -6.015656e-02  0 
VECTORS displacement_ITER24 FLOAT
 -5.516038e-03  -5.461031e-02  0 
 -5.519631e-03  -6.015656e-02  0 
 -3.296684e-03  -5.460900e-02  0 
 -1.084574e-03  -5.460866e-02  0 
 1.128573e-03  -5.460866e-02  0 
 3.340683e-03  -5.460900e-02  0 
 5.560037e-03  -5.461031e-02  0 
 -3.302421e-03  -6.015629e-02  0 
 -1.087209e-03  -6.015559e-02  0 
 1.131208e-03  -6.015559e-02  0 
 3.346420e-03  -6.015629e-02  0 
 5.563630e-03  -6.015656e-02  0 
VECTORS displacement_ITER25 FLOAT
 -5.516038e-03  -5.461031e-02  0 
 -5.519631e-03  -6.015656e-02  0 
 -3.296684e-03  -5.460900e-02  0 
 -1.084574e-03  -5.460866e-02  0 
 1.128573e-03  -5.460866e-02  0 
 3.340683e-03  -5.460900e-02  0 
 5.560037e-03  -5.461031e-02  0 
 -3.302421e-03  -6.015629e-02  0 
 -1.087209e-03  -6.015559e-02  0 
 1.131208e-03  -6.015559e-02  0 
 3.346420e-03  -6.015629e-02  0 
 5.563630e-03  -6.015656e-02  0 
CELL_DATA 5
TENSORS element_stresses FLOAT
 -8.954296e-03  -1.634250e-03  0 
 -1.634250e-03  1.254730e-03  0 
 0  0  0 

 -8.340034e-04  -1.993472e-03  0 
 -1.993472e-03  1.064134e-05  0 
 0  0  0 

 -1.100396e-09  -1.149456e-02  0 
 -1.149456e-02  -6.826042e-10  0 
 0  0  0 

 8.340032e-04  -1.993472e-03  0 
 -1.993472e-03  -1.064163e-05  0 
 0  0  0 

 8.954297e-03  -1.634249e-03  0 
 -1.634249e-03  -1.254728e-03  0 
 0  0  0 

TENSORS element_stresses FLOAT
 -8.954296e-03  -1.634250e-03  0 
 -1.634250e-03  1.254730e-03  0 
 0  0  0 

 -8.340034e-04  -1.993472e-03  0 
 -1.993472e-03  1.064134e-05  0 
 0  0  0 

 -1.100396e-09  -1.149456e-02  0 
 -1.149456e-02  -6.826042e-10  0 
 0  0  0 

 8.340032e-04  -1.993472e-03  0 
 -1.993472e-03  -1.064163e-05  0 
 0  0  0 

 8.954297e-03  -1.634249e-03  0 
 -1.634249e-03  -1.254728e-03  0 
 0  0  0 

