# vtk DataFile Version 3.1
this is an vtk file created by FEMAC
ASCII
DATASET UNSTRUCTURED_GRID
POINTS 12 FLOAT
2.500000 0.000000 0.000000
3.000000 0.000000 0.000000
2.500000 0.200000 0.000000
2.500000 0.400000 0.000000
2.500000 0.600000 0.000000
2.500000 0.800000 0.000000
2.500000 1.000000 0.000000
3.000000 0.200000 0.000000
3.000000 0.400000 0.000000
3.000000 0.600000 0.000000
3.000000 0.800000 0.000000
3.000000 1.000000 0.000000
CELLS 5 25 
4 0 1 7 2
4 2 7 8 3
4 3 8 9 4
4 4  9 10  5
4 5 10 11  6
CELL_TYPES 5
9 9 9 9 9 
POINT_DATA 12
VECTORS displacement_ITER1 FLOAT
 -3.557837e-03  -1.004630e-02  0 
 -4.452741e-03  -1.409153e-02  0 
 -2.282225e-03  -1.003395e-02  0 
 -7.317978e-04  -1.000499e-02  0 
 7.962793e-04  -1.000515e-02  0 
 2.346687e-03  -1.003415e-02  0 
 3.621472e-03  -1.004692e-02  0 
 -2.547455e-03  -1.411063e-02  0 
 -8.594205e-04  -1.409749e-02  0 
 9.238740e-04  -1.409765e-02  0 
 2.611928e-03  -1.411082e-02  0 
 4.518041e-03  -1.409215e-02  0 
VECTORS displacement_ITER2 FLOAT
 -3.525225e-03  -9.884967e-03  0 
 -4.354871e-03  -1.388601e-02  0 
 -2.220345e-03  -9.881566e-03  0 
 -7.130997e-04  -9.851866e-03  0 
 7.395698e-04  -9.851841e-03  0 
 2.246818e-03  -9.881527e-03  0 
 3.551990e-03  -9.884711e-03  0 
 -2.499280e-03  -1.386294e-02  0 
 -8.467593e-04  -1.384442e-02  0 
 8.732331e-04  -1.384440e-02  0 
 2.525751e-03  -1.386290e-02  0 
 4.381050e-03  -1.388576e-02  0 
VECTORS displacement_ITER3 FLOAT
 -3.490795e-03  -9.786687e-03  0 
 -4.277360e-03  -1.374451e-02  0 
 -2.170172e-03  -9.774710e-03  0 
 -6.872846e-04  -9.744386e-03  0 
 7.263522e-04  -9.746465e-03  0 
 2.207738e-03  -9.777551e-03  0 
 3.521426e-03  -9.791252e-03  0 
 -2.458044e-03  -1.370335e-02  0 
 -8.245374e-04  -1.368220e-02  0 
 8.637095e-04  -1.368051e-02  0 
 2.495279e-03  -1.370114e-02  0 
 4.312688e-03  -1.374079e-02  0 
VECTORS displacement_ITER4 FLOAT
 -3.462832e-03  -9.781571e-03  0 
 -4.249450e-03  -1.368648e-02  0 
 -2.162091e-03  -9.750953e-03  0 
 -6.879335e-04  -9.718827e-03  0 
 7.257318e-04  -9.711964e-03  0 
 2.205041e-03  -9.742632e-03  0 
 3.523381e-03  -9.766314e-03  0 
 -2.451027e-03  -1.365686e-02  0 
 -8.256388e-04  -1.363724e-02  0 
 8.633752e-04  -1.364259e-02  0 
 2.494464e-03  -1.366329e-02  0 
 4.299372e-03  -1.369728e-02  0 
VECTORS displacement_ITER5 FLOAT
 -3.469147e-03  -9.763691e-03  0 
 -4.247416e-03  -1.367570e-02  0 
 -2.159429e-03  -9.732465e-03  0 
 -6.825916e-04  -9.701290e-03  0 
 7.326705e-04  -9.707404e-03  0 
 2.204557e-03  -9.739324e-03  0 
 3.503689e-03  -9.776271e-03  0 
 -2.448982e-03  -1.364668e-02  0 
 -8.201228e-04  -1.362671e-02  0 
 8.702591e-04  -1.362098e-02  0 
 2.494038e-03  -1.364026e-02  0 
 4.283116e-03  -1.366402e-02  0 
VECTORS displacement_ITER6 FLOAT
 -3.460934e-03  -9.770706e-03  0 
 -4.237671e-03  -1.366235e-02  0 
 -2.158818e-03  -9.735427e-03  0 
 -6.868072e-04  -9.703986e-03  0 
 7.281052e-04  -9.701415e-03  0 
 2.202714e-03  -9.732619e-03  0 
 3.507935e-03  -9.765427e-03  0 
 -2.448421e-03  -1.363760e-02  0 
 -8.240980e-04  -1.361821e-02  0 
 8.654804e-04  -1.362133e-02  0 
 2.492123e-03  -1.364110e-02  0 
 4.287931e-03  -1.366916e-02  0 
VECTORS displacement_ITER7 FLOAT
 -3.459809e-03  -9.766420e-03  0 
 -4.239068e-03  -1.366314e-02  0 
 -2.157262e-03  -9.733476e-03  0 
 -6.854320e-04  -9.702431e-03  0 
 7.286159e-04  -9.701202e-03  0 
 2.201333e-03  -9.732178e-03  0 
 3.506220e-03  -9.764166e-03  0 
 -2.446674e-03  -1.363570e-02  0 
 -8.224065e-04  -1.361607e-02  0 
 8.656304e-04  -1.361690e-02  0 
 2.490781e-03  -1.363654e-02  0 
 4.283558e-03  -1.366446e-02  0 
VECTORS displacement_ITER8 FLOAT
 -3.460700e-03  -9.763200e-03  0 
 -4.239642e-03  -1.366330e-02  0 
 -2.156784e-03  -9.731501e-03  0 
 -6.846173e-04  -9.700558e-03  0 
 7.293586e-04  -9.701050e-03  0 
 2.201114e-03  -9.732018e-03  0 
 3.504427e-03  -9.764384e-03  0 
 -2.446180e-03  -1.363486e-02  0 
 -8.213921e-04  -1.361520e-02  0 
 8.661900e-04  -1.361454e-02  0 
 2.490487e-03  -1.363416e-02  0 
 4.282588e-03  -1.366171e-02  0 
VECTORS displacement_ITER9 FLOAT
 -3.460575e-03  -9.761819e-03  0 
 -4.239359e-03  -1.366047e-02  0 
 -2.156999e-03  -9.729681e-03  0 
 -6.850710e-04  -9.698678e-03  0 
 7.293541e-04  -9.699252e-03  0 
 2.201033e-03  -9.730239e-03  0 
 3.503876e-03  -9.762562e-03  0 
 -2.446371e-03  -1.363272e-02  0 
 -8.215733e-04  -1.361314e-02  0 
 8.659306e-04  -1.361280e-02  0 
 2.490319e-03  -1.363243e-02  0 
 4.283294e-03  -1.366019e-02  0 
VECTORS displacement_ITER10 FLOAT
 -3.460300e-03  -9.762069e-03  0 
 -4.239507e-03  -1.365976e-02  0 
 -2.157220e-03  -9.729532e-03  0 
 -6.854283e-04  -9.698504e-03  0 
 7.292460e-04  -9.698656e-03  0 
 2.201102e-03  -9.729644e-03  0 
 3.504246e-03  -9.761946e-03  0 
 -2.446566e-03  -1.363231e-02  0 
 -8.218368e-04  -1.361274e-02  0 
 8.657223e-04  -1.361278e-02  0 
 2.490385e-03  -1.363240e-02  0 
 4.283627e-03  -1.366017e-02  0 
VECTORS displacement_ITER11 FLOAT
 -3.460364e-03  -9.762402e-03  0 
 -4.239798e-03  -1.366041e-02  0 
 -2.157282e-03  -9.729912e-03  0 
 -6.854590e-04  -9.698897e-03  0 
 7.292970e-04  -9.698906e-03  0 
 2.201236e-03  -9.729883e-03  0 
 3.504559e-03  -9.762277e-03  0 
 -2.446620e-03  -1.363281e-02  0 
 -8.218432e-04  -1.361322e-02  0 
 8.657411e-04  -1.361329e-02  0 
 2.490532e-03  -1.363292e-02  0 
 4.283749e-03  -1.366056e-02  0 
VECTORS displacement_ITER12 FLOAT
 -3.460471e-03  -9.762567e-03  0 
 -4.239903e-03  -1.366086e-02  0 
 -2.157288e-03  -9.730155e-03  0 
 -6.854252e-04  -9.699150e-03  0 
 7.293502e-04  -9.699171e-03  0 
 2.201301e-03  -9.730143e-03  0 
 3.504672e-03  -9.762547e-03  0 
 -2.446628e-03  -1.363317e-02  0 
 -8.218025e-04  -1.361357e-02  0 
 8.657850e-04  -1.361361e-02  0 
 2.490604e-03  -1.363323e-02  0 
 4.283823e-03  -1.366086e-02  0 
VECTORS displacement_ITER13 FLOAT
 -3.460536e-03  -9.762704e-03  0 
 -4.239904e-03  -1.366105e-02  0 
 -2.157295e-03  -9.730300e-03  0 
 -6.854106e-04  -9.699296e-03  0 
 7.293765e-04  -9.699350e-03  0 
 2.201324e-03  -9.730324e-03  0 
 3.504721e-03  -9.762685e-03  0 
 -2.446640e-03  -1.363339e-02  0 
 -8.217857e-04  -1.361378e-02  0 
 8.658082e-04  -1.361378e-02  0 
 2.490632e-03  -1.363342e-02  0 
 4.283866e-03  -1.366108e-02  0 
VECTORS displacement_ITER14 FLOAT
 -3.460567e-03  -9.762805e-03  0 
 -4.239887e-03  -1.366112e-02  0 
 -2.157309e-03  -9.730378e-03  0 
 -6.854173e-04  -9.699371e-03  0 
 7.293840e-04  -9.699432e-03  0 
 2.201334e-03  -9.730409e-03  0 
 3.504749e-03  -9.762769e-03  0 
 -2.446659e-03  -1.363348e-02  0 
 -8.217929e-04  -1.361388e-02  0 
 8.658149e-04  -1.361388e-02  0 
 2.490647e-03  -1.363351e-02  0 
 4.283870e-03  -1.366117e-02  0 
VECTORS displacement_ITER15 FLOAT
 -3.460573e-03  -9.762816e-03  0 
 -4.239881e-03  -1.366111e-02  0 
 -2.157314e-03  -9.730383e-03  0 
 -6.854251e-04  -9.699376e-03  0 
 7.293818e-04  -9.699425e-03  0 
 2.201337e-03  -9.730404e-03  0 
 3.504751e-03  -9.762797e-03  0 
 -2.446665e-03  -1.363348e-02  0 
 -8.218019e-04  -1.361388e-02  0 
 8.658134e-04  -1.361389e-02  0 
 2.490652e-03  -1.363352e-02  0 
 4.283856e-03  -1.366115e-02  0 
VECTORS displacement_ITER16 FLOAT
 -3.460573e-03  -9.762808e-03  0 
 -4.239881e-03  -1.366111e-02  0 
 -2.157312e-03  -9.730378e-03  0 
 -6.854250e-04  -9.699371e-03  0 
 7.293790e-04  -9.699418e-03  0 
 2.201333e-03  -9.730397e-03  0 
 3.504752e-03  -9.762785e-03  0 
 -2.446664e-03  -1.363347e-02  0 
 -8.218021e-04  -1.361387e-02  0 
 8.658111e-04  -1.361388e-02  0 
 2.490649e-03  -1.363351e-02  0 
 4.283853e-03  -1.366115e-02  0 
VECTORS displacement_ITER17 FLOAT
 -3.460572e-03  -9.762808e-03  0 
 -4.239879e-03  -1.366111e-02  0 
 -2.157311e-03  -9.730377e-03  0 
 -6.854241e-04  -9.699370e-03  0 
 7.293789e-04  -9.699417e-03  0 
 2.201333e-03  -9.730396e-03  0 
 3.504751e-03  -9.762785e-03  0 
 -2.446663e-03  -1.363347e-02  0 
 -8.218017e-04  -1.361387e-02  0 
 8.658113e-04  -1.361388e-02  0 
 2.490649e-03  -1.363351e-02  0 
 4.283853e-03  -1.366115e-02  0 
VECTORS displacement_ITER18 FLOAT
 -3.460573e-03  -9.762811e-03  0 
 -4.239878e-03  -1.366111e-02  0 
 -2.157311e-03  -9.730378e-03  0 
 -6.854238e-04  -9.699371e-03  0 
 7.293794e-04  -9.699418e-03  0 
 2.201333e-03  -9.730397e-03  0 
 3.504750e-03  -9.762789e-03  0 
 -2.446663e-03  -1.363347e-02  0 
 -8.218017e-04  -1.361387e-02  0 
 8.658122e-04  -1.361388e-02  0 
 2.490649e-03  -1.363351e-02  0 
 4.283852e-03  -1.366115e-02  0 
VECTORS displacement_ITER19 FLOAT
 -3.460573e-03  -9.762811e-03  0 
 -4.239879e-03  -1.366111e-02  0 
 -2.157310e-03  -9.730379e-03  0 
 -6.854235e-04  -9.699371e-03  0 
 7.293794e-04  -9.699418e-03  0 
 2.201333e-03  -9.730398e-03  0 
 3.504751e-03  -9.762788e-03  0 
 -2.446663e-03  -1.363347e-02  0 
 -8.218015e-04  -1.361387e-02  0 
 8.658124e-04  -1.361388e-02  0 
 2.490649e-03  -1.363351e-02  0 
 4.283852e-03  -1.366115e-02  0 
VECTORS displacement_ITER20 FLOAT
 -3.460572e-03  -9.762811e-03  0 
 -4.239878e-03  -1.366111e-02  0 
 -2.157310e-03  -9.730378e-03  0 
 -6.854235e-04  -9.699371e-03  0 
 7.293793e-04  -9.699418e-03  0 
 2.201333e-03  -9.730398e-03  0 
 3.504751e-03  -9.762788e-03  0 
 -2.446663e-03  -1.363347e-02  0 
 -8.218016e-04  -1.361387e-02  0 
 8.658123e-04  -1.361388e-02  0 
 2.490649e-03  -1.363351e-02  0 
 4.283852e-03  -1.366115e-02  0 
VECTORS displacement_ITER21 FLOAT
 -3.460572e-03  -9.762811e-03  0 
 -4.239878e-03  -1.366111e-02  0 
 -2.157310e-03  -9.730378e-03  0 
 -6.854236e-04  -9.699371e-03  0 
 7.293792e-04  -9.699418e-03  0 
 2.201333e-03  -9.730398e-03  0 
 3.504751e-03  -9.762788e-03  0 
 -2.446663e-03  -1.363347e-02  0 
 -8.218016e-04  -1.361387e-02  0 
 8.658123e-04  -1.361388e-02  0 
 2.490649e-03  -1.363351e-02  0 
 4.283853e-03  -1.366115e-02  0 
VECTORS displacement_ITER22 FLOAT
 -3.460572e-03  -9.762811e-03  0 
 -4.239878e-03  -1.366111e-02  0 
 -2.157310e-03  -9.730378e-03  0 
 -6.854235e-04  -9.699371e-03  0 
 7.293792e-04  -9.699418e-03  0 
 2.201333e-03  -9.730398e-03  0 
 3.504751e-03  -9.762788e-03  0 
 -2.446663e-03  -1.363347e-02  0 
 -8.218016e-04  -1.361387e-02  0 
 8.658123e-04  -1.361388e-02  0 
 2.490649e-03  -1.363351e-02  0 
 4.283853e-03  -1.366115e-02  0 
VECTORS displacement_ITER23 FLOAT
 -3.460572e-03  -9.762811e-03  0 
 -4.239878e-03  -1.366111e-02  0 
 -2.157310e-03  -9.730378e-03  0 
 -6.854235e-04  -9.699371e-03  0 
 7.293792e-04  -9.699418e-03  0 
 2.201333e-03  -9.730398e-03  0 
 3.504751e-03  -9.762788e-03  0 
 -2.446663e-03  -1.363347e-02  0 
 -8.218016e-04  -1.361387e-02  0 
 8.658123e-04  -1.361388e-02  0 
 2.490649e-03  -1.363351e-02  0 
 4.283853e-03  -1.366115e-02  0 
VECTORS displacement_ITER24 FLOAT
 -3.460572e-03  -9.762811e-03  0 
 -4.239878e-03  -1.366111e-02  0 
 -2.157310e-03  -9.730379e-03  0 
 -6.854235e-04  -9.699371e-03  0 
 7.293792e-04  -9.699418e-03  0 
 2.201333e-03  -9.730398e-03  0 
 3.504751e-03  -9.762788e-03  0 
 -2.446663e-03  -1.363347e-02  0 
 -8.218016e-04  -1.361387e-02  0 
 8.658123e-04  -1.361388e-02  0 
 2.490649e-03  -1.363351e-02  0 
 4.283853e-03  -1.366115e-02  0 
VECTORS displacement_ITER25 FLOAT
 -3.460572e-03  -9.762811e-03  0 
 -4.239878e-03  -1.366111e-02  0 
 -2.157310e-03  -9.730379e-03  0 
 -6.854235e-04  -9.699371e-03  0 
 7.293792e-04  -9.699418e-03  0 
 2.201333e-03  -9.730398e-03  0 
 3.504751e-03  -9.762788e-03  0 
 -2.446663e-03  -1.363347e-02  0 
 -8.218016e-04  -1.361387e-02  0 
 8.658123e-04  -1.361388e-02  0 
 2.490649e-03  -1.363351e-02  0 
 4.283853e-03  -1.366115e-02  0 
CELL_DATA 5
TENSORS element_stresses FLOAT
 -1.124843e-01  -4.630630e-03  0 
 -4.630630e-03  -1.872804e-02  0 
 0  0  0 

 -4.261244e-01  -5.824894e-02  0 
 -5.824894e-02  -1.312648e-03  0 
 0  0  0 

 1.285739e-06  -5.609221e-03  0 
 -5.609221e-03  -1.403101e-05  0 
 0  0  0 

 4.261462e-01  -5.815200e-02  0 
 -5.815200e-02  1.323250e-03  0 
 0  0  0 

 1.124611e-01  -4.609215e-03  0 
 -4.609215e-03  1.873101e-02  0 
 0  0  0 

TENSORS element_stresses FLOAT
 -1.124843e-01  -4.630630e-03  0 
 -4.630630e-03  -1.872804e-02  0 
 0  0  0 

 -4.261244e-01  -5.824894e-02  0 
 -5.824894e-02  -1.312648e-03  0 
 0  0  0 

 1.285739e-06  -5.609221e-03  0 
 -5.609221e-03  -1.403101e-05  0 
 0  0  0 

 4.261462e-01  -5.815200e-02  0 
 -5.815200e-02  1.323250e-03  0 
 0  0  0 

 1.124611e-01  -4.609215e-03  0 
 -4.609215e-03  1.873101e-02  0 
 0  0  0 

