# vtk DataFile Version 3.1
this is an vtk file created by FEMAC
ASCII
DATASET UNSTRUCTURED_GRID
POINTS 12 FLOAT
2.000000 0.000000 0.000000
2.500000 0.000000 0.000000
2.000000 0.200000 0.000000
2.000000 0.400000 0.000000
2.000000 0.600000 0.000000
2.000000 0.800000 0.000000
2.000000 1.000000 0.000000
2.500000 0.200000 0.000000
2.500000 0.400000 0.000000
2.500000 0.600000 0.000000
2.500000 0.800000 0.000000
2.500000 1.000000 0.000000
CELLS 5 25 
4 0 1 7 2
4 2 7 8 3
4 3 8 9 4
4 4  9 10  5
4 5 10 11  6
CELL_TYPES 5
9 9 9 9 9 
POINT_DATA 12
VECTORS displacement_ITER1 FLOAT
 -3.394155e-03  -6.479623e-03  0 
 -3.603567e-03  -1.007901e-02  0 
 -1.901792e-03  -6.435742e-03  0 
 -6.356662e-04  -6.406482e-03  0 
 6.999557e-04  -6.406457e-03  0 
 1.966045e-03  -6.435286e-03  0 
 3.458316e-03  -6.479136e-03  0 
 -2.217059e-03  -1.004251e-02  0 
 -6.976697e-04  -9.964698e-03  0 
 7.618071e-04  -9.964673e-03  0 
 2.281234e-03  -1.004205e-02  0 
 3.667833e-03  -1.007852e-02  0 
VECTORS displacement_ITER2 FLOAT
 -3.336149e-03  -6.405427e-03  0 
 -3.538142e-03  -9.908816e-03  0 
 -1.875516e-03  -6.364604e-03  0 
 -6.447570e-04  -6.334086e-03  0 
 6.701359e-04  -6.333996e-03  0 
 1.902164e-03  -6.362944e-03  0 
 3.363866e-03  -6.403787e-03  0 
 -2.200247e-03  -9.873516e-03  0 
 -7.070156e-04  -9.834718e-03  0 
 7.325772e-04  -9.834797e-03  0 
 2.226742e-03  -9.874667e-03  0 
 3.565793e-03  -9.909962e-03  0 
VECTORS displacement_ITER3 FLOAT
 -3.287209e-03  -6.349456e-03  0 
 -3.484337e-03  -9.798441e-03  0 
 -1.843745e-03  -6.310540e-03  0 
 -6.341920e-04  -6.279665e-03  0 
 6.679195e-04  -6.279926e-03  0 
 1.879670e-03  -6.309559e-03  0 
 3.324388e-03  -6.348836e-03  0 
 -2.174462e-03  -9.764842e-03  0 
 -6.962474e-04  -9.746254e-03  0 
 7.310066e-04  -9.746388e-03  0 
 2.210188e-03  -9.765775e-03  0 
 3.521116e-03  -9.799352e-03  0 
VECTORS displacement_ITER4 FLOAT
 -3.271708e-03  -6.335336e-03  0 
 -3.467556e-03  -9.774477e-03  0 
 -1.829430e-03  -6.295844e-03  0 
 -6.247218e-04  -6.266471e-03  0 
 6.716050e-04  -6.265860e-03  0 
 1.877289e-03  -6.294731e-03  0 
 3.318808e-03  -6.333850e-03  0 
 -2.161797e-03  -9.741818e-03  0 
 -6.874083e-04  -9.719646e-03  0 
 7.341917e-04  -9.719841e-03  0 
 2.208989e-03  -9.741899e-03  0 
 3.514878e-03  -9.774580e-03  0 
VECTORS displacement_ITER5 FLOAT
 -3.268865e-03  -6.330151e-03  0 
 -3.464507e-03  -9.767567e-03  0 
 -1.827156e-03  -6.290648e-03  0 
 -6.249908e-04  -6.262520e-03  0 
 6.678006e-04  -6.262289e-03  0 
 1.870890e-03  -6.290260e-03  0 
 3.312393e-03  -6.329800e-03  0 
 -2.160086e-03  -9.735170e-03  0 
 -6.875747e-04  -9.708092e-03  0 
 7.304863e-04  -9.708058e-03  0 
 2.203301e-03  -9.734680e-03  0 
 3.508130e-03  -9.766878e-03  0 
VECTORS displacement_ITER6 FLOAT
 -3.266721e-03  -6.329717e-03  0 
 -3.462471e-03  -9.766406e-03  0 
 -1.825143e-03  -6.290213e-03  0 
 -6.239624e-04  -6.262403e-03  0 
 6.673906e-04  -6.262304e-03  0 
 1.869500e-03  -6.289866e-03  0 
 3.311078e-03  -6.329472e-03  0 
 -2.158236e-03  -9.734083e-03  0 
 -6.862825e-04  -9.704330e-03  0 
 7.302133e-04  -9.704483e-03  0 
 2.202284e-03  -9.733981e-03  0 
 3.506688e-03  -9.766296e-03  0 
VECTORS displacement_ITER7 FLOAT
 -3.264858e-03  -6.329764e-03  0 
 -3.460634e-03  -9.765512e-03  0 
 -1.823528e-03  -6.290208e-03  0 
 -6.231398e-04  -6.262222e-03  0 
 6.671771e-04  -6.262121e-03  0 
 1.868357e-03  -6.289811e-03  0 
 3.309685e-03  -6.329378e-03  0 
 -2.156866e-03  -9.733077e-03  0 
 -6.853924e-04  -9.701222e-03  0 
 7.297960e-04  -9.701339e-03  0 
 2.201391e-03  -9.733155e-03  0 
 3.505370e-03  -9.765567e-03  0 
VECTORS displacement_ITER8 FLOAT
 -3.264464e-03  -6.329365e-03  0 
 -3.460252e-03  -9.764398e-03  0 
 -1.823425e-03  -6.289781e-03  0 
 -6.231989e-04  -6.261359e-03  0 
 6.671000e-04  -6.261244e-03  0 
 1.867972e-03  -6.289506e-03  0 
 3.308927e-03  -6.329076e-03  0 
 -2.156833e-03  -9.731918e-03  0 
 -6.853979e-04  -9.700051e-03  0 
 7.295358e-04  -9.700102e-03  0 
 2.201055e-03  -9.731912e-03  0 
 3.504689e-03  -9.764329e-03  0 
VECTORS displacement_ITER9 FLOAT
 -3.264336e-03  -6.328362e-03  0 
 -3.460187e-03  -9.762393e-03  0 
 -1.823751e-03  -6.288761e-03  0 
 -6.235155e-04  -6.259697e-03  0 
 6.671644e-04  -6.259590e-03  0 
 1.867854e-03  -6.288692e-03  0 
 3.308290e-03  -6.328304e-03  0 
 -2.157139e-03  -9.729937e-03  0 
 -6.855208e-04  -9.698875e-03  0 
 7.293704e-04  -9.698897e-03  0 
 2.200968e-03  -9.729860e-03  0 
 3.504127e-03  -9.762269e-03  0 
VECTORS displacement_ITER10 FLOAT
 -3.264395e-03  -6.328035e-03  0 
 -3.460279e-03  -9.761961e-03  0 
 -1.823882e-03  -6.288438e-03  0 
 -6.235950e-04  -6.259371e-03  0 
 6.672302e-04  -6.259275e-03  0 
 1.867959e-03  -6.288338e-03  0 
 3.308384e-03  -6.327955e-03  0 
 -2.157236e-03  -9.729524e-03  0 
 -6.855018e-04  -9.698686e-03  0 
 7.293490e-04  -9.698718e-03  0 
 2.201075e-03  -9.729529e-03  0 
 3.504238e-03  -9.761932e-03  0 
VECTORS displacement_ITER11 FLOAT
 -3.264524e-03  -6.328071e-03  0 
 -3.460418e-03  -9.762291e-03  0 
 -1.823908e-03  -6.288479e-03  0 
 -6.235709e-04  -6.259672e-03  0 
 6.672689e-04  -6.259579e-03  0 
 1.868094e-03  -6.288295e-03  0 
 3.308682e-03  -6.327904e-03  0 
 -2.157248e-03  -9.729856e-03  0 
 -6.854412e-04  -9.698913e-03  0 
 7.293528e-04  -9.698956e-03  0 
 2.201202e-03  -9.729932e-03  0 
 3.504539e-03  -9.762330e-03  0 
VECTORS displacement_ITER12 FLOAT
 -3.264606e-03  -6.328157e-03  0 
 -3.460503e-03  -9.762564e-03  0 
 -1.823919e-03  -6.288563e-03  0 
 -6.235512e-04  -6.259894e-03  0 
 6.672928e-04  -6.259801e-03  0 
 1.868163e-03  -6.288370e-03  0 
 3.308820e-03  -6.327978e-03  0 
 -2.157259e-03  -9.730127e-03  0 
 -6.854108e-04  -9.699110e-03  0 
 7.293656e-04  -9.699154e-03  0 
 2.201268e-03  -9.730191e-03  0 
 3.504678e-03  -9.762587e-03  0 
VECTORS displacement_ITER13 FLOAT
 -3.264654e-03  -6.328256e-03  0 
 -3.460551e-03  -9.762737e-03  0 
 -1.823935e-03  -6.288658e-03  0 
 -6.235481e-04  -6.260024e-03  0 
 6.673118e-04  -6.259928e-03  0 
 1.868202e-03  -6.288480e-03  0 
 3.308866e-03  -6.328095e-03  0 
 -2.157281e-03  -9.730300e-03  0 
 -6.854044e-04  -9.699269e-03  0 
 7.293823e-04  -9.699314e-03  0 
 2.201309e-03  -9.730322e-03  0 
 3.504725e-03  -9.762717e-03  0 
VECTORS displacement_ITER14 FLOAT
 -3.264675e-03  -6.328336e-03  0 
 -3.460573e-03  -9.762817e-03  0 
 -1.823954e-03  -6.288734e-03  0 
 -6.235602e-04  -6.260087e-03  0 
 6.673153e-04  -6.259988e-03  0 
 1.868224e-03  -6.288547e-03  0 
 3.308889e-03  -6.328166e-03  0 
 -2.157303e-03  -9.730383e-03  0 
 -6.854153e-04  -9.699369e-03  0 
 7.293854e-04  -9.699414e-03  0 
 2.201332e-03  -9.730394e-03  0 
 3.504747e-03  -9.762787e-03  0 
VECTORS displacement_ITER15 FLOAT
 -3.264676e-03  -6.328352e-03  0 
 -3.460573e-03  -9.762815e-03  0 
 -1.823962e-03  -6.288750e-03  0 
 -6.235703e-04  -6.260087e-03  0 
 6.673081e-04  -6.259989e-03  0 
 1.868226e-03  -6.288543e-03  0 
 3.308897e-03  -6.328163e-03  0 
 -2.157311e-03  -9.730381e-03  0 
 -6.854255e-04  -9.699377e-03  0 
 7.293787e-04  -9.699424e-03  0 
 2.201334e-03  -9.730406e-03  0 
 3.504755e-03  -9.762797e-03  0 
VECTORS displacement_ITER16 FLOAT
 -3.264678e-03  -6.328343e-03  0 
 -3.460575e-03  -9.762811e-03  0 
 -1.823961e-03  -6.288740e-03  0 
 -6.235681e-04  -6.260083e-03  0 
 6.673085e-04  -6.259984e-03  0 
 1.868226e-03  -6.288541e-03  0 
 3.308893e-03  -6.328161e-03  0 
 -2.157311e-03  -9.730378e-03  0 
 -6.854233e-04  -9.699369e-03  0 
 7.293802e-04  -9.699416e-03  0 
 2.201334e-03  -9.730395e-03  0 
 3.504750e-03  -9.762786e-03  0 
VECTORS displacement_ITER17 FLOAT
 -3.264676e-03  -6.328344e-03  0 
 -3.460573e-03  -9.762810e-03  0 
 -1.823960e-03  -6.288741e-03  0 
 -6.235681e-04  -6.260085e-03  0 
 6.673071e-04  -6.259986e-03  0 
 1.868225e-03  -6.288539e-03  0 
 3.308893e-03  -6.328159e-03  0 
 -2.157310e-03  -9.730377e-03  0 
 -6.854236e-04  -9.699369e-03  0 
 7.293791e-04  -9.699415e-03  0 
 2.201333e-03  -9.730396e-03  0 
 3.504750e-03  -9.762786e-03  0 
VECTORS displacement_ITER18 FLOAT
 -3.264676e-03  -6.328346e-03  0 
 -3.460573e-03  -9.762811e-03  0 
 -1.823960e-03  -6.288743e-03  0 
 -6.235683e-04  -6.260088e-03  0 
 6.673063e-04  -6.259989e-03  0 
 1.868225e-03  -6.288540e-03  0 
 3.308894e-03  -6.328160e-03  0 
 -2.157310e-03  -9.730378e-03  0 
 -6.854238e-04  -9.699371e-03  0 
 7.293786e-04  -9.699418e-03  0 
 2.201333e-03  -9.730398e-03  0 
 3.504751e-03  -9.762789e-03  0 
VECTORS displacement_ITER19 FLOAT
 -3.264676e-03  -6.328346e-03  0 
 -3.460573e-03  -9.762812e-03  0 
 -1.823960e-03  -6.288743e-03  0 
 -6.235674e-04  -6.260089e-03  0 
 6.673071e-04  -6.259989e-03  0 
 1.868226e-03  -6.288542e-03  0 
 3.308893e-03  -6.328162e-03  0 
 -2.157310e-03  -9.730379e-03  0 
 -6.854231e-04  -9.699371e-03  0 
 7.293796e-04  -9.699418e-03  0 
 2.201333e-03  -9.730397e-03  0 
 3.504750e-03  -9.762788e-03  0 
VECTORS displacement_ITER20 FLOAT
 -3.264676e-03  -6.328347e-03  0 
 -3.460572e-03  -9.762811e-03  0 
 -1.823960e-03  -6.288744e-03  0 
 -6.235681e-04  -6.260089e-03  0 
 6.673064e-04  -6.259989e-03  0 
 1.868226e-03  -6.288542e-03  0 
 3.308894e-03  -6.328162e-03  0 
 -2.157310e-03  -9.730378e-03  0 
 -6.854238e-04  -9.699371e-03  0 
 7.293790e-04  -9.699418e-03  0 
 2.201333e-03  -9.730398e-03  0 
 3.504751e-03  -9.762788e-03  0 
VECTORS displacement_ITER21 FLOAT
 -3.264676e-03  -6.328347e-03  0 
 -3.460573e-03  -9.762811e-03  0 
 -1.823960e-03  -6.288744e-03  0 
 -6.235678e-04  -6.260088e-03  0 
 6.673066e-04  -6.259989e-03  0 
 1.868226e-03  -6.288542e-03  0 
 3.308893e-03  -6.328162e-03  0 
 -2.157310e-03  -9.730378e-03  0 
 -6.854235e-04  -9.699371e-03  0 
 7.293793e-04  -9.699418e-03  0 
 2.201333e-03  -9.730397e-03  0 
 3.504750e-03  -9.762788e-03  0 
VECTORS displacement_ITER22 FLOAT
 -3.264676e-03  -6.328347e-03  0 
 -3.460572e-03  -9.762811e-03  0 
 -1.823960e-03  -6.288744e-03  0 
 -6.235679e-04  -6.260089e-03  0 
 6.673065e-04  -6.259989e-03  0 
 1.868226e-03  -6.288542e-03  0 
 3.308893e-03  -6.328162e-03  0 
 -2.157310e-03  -9.730378e-03  0 
 -6.854236e-04  -9.699371e-03  0 
 7.293792e-04  -9.699418e-03  0 
 2.201333e-03  -9.730398e-03  0 
 3.504751e-03  -9.762788e-03  0 
VECTORS displacement_ITER23 FLOAT
 -3.264676e-03  -6.328347e-03  0 
 -3.460572e-03  -9.762811e-03  0 
 -1.823960e-03  -6.288744e-03  0 
 -6.235678e-04  -6.260089e-03  0 
 6.673065e-04  -6.259990e-03  0 
 1.868226e-03  -6.288542e-03  0 
 3.308893e-03  -6.328162e-03  0 
 -2.157310e-03  -9.730378e-03  0 
 -6.854235e-04  -9.699371e-03  0 
 7.293792e-04  -9.699418e-03  0 
 2.201333e-03  -9.730398e-03  0 
 3.504751e-03  -9.762788e-03  0 
VECTORS displacement_ITER24 FLOAT
 -3.264676e-03  -6.328347e-03  0 
 -3.460572e-03  -9.762811e-03  0 
 -1.823960e-03  -6.288744e-03  0 
 -6.235678e-04  -6.260089e-03  0 
 6.673065e-04  -6.259990e-03  0 
 1.868226e-03  -6.288542e-03  0 
 3.308893e-03  -6.328162e-03  0 
 -2.157310e-03  -9.730379e-03  0 
 -6.854235e-04  -9.699371e-03  0 
 7.293792e-04  -9.699418e-03  0 
 2.201333e-03  -9.730398e-03  0 
 3.504751e-03  -9.762788e-03  0 
VECTORS displacement_ITER25 FLOAT
 -3.264676e-03  -6.328347e-03  0 
 -3.460572e-03  -9.762811e-03  0 
 -1.823960e-03  -6.288744e-03  0 
 -6.235678e-04  -6.260089e-03  0 
 6.673065e-04  -6.259990e-03  0 
 1.868226e-03  -6.288542e-03  0 
 3.308893e-03  -6.328162e-03  0 
 -2.157310e-03  -9.730379e-03  0 
 -6.854235e-04  -9.699371e-03  0 
 7.293792e-04  -9.699418e-03  0 
 2.201333e-03  -9.730398e-03  0 
 3.504751e-03  -9.762788e-03  0 
CELL_DATA 5
TENSORS element_stresses FLOAT
 -5.222196e-01  -1.242661e-02  0 
 -1.242661e-02  2.342302e-02  0 
 0  0  0 

 -3.851196e-02  -1.540146e-02  0 
 -1.540146e-02  3.362017e-03  0 
 0  0  0 

 2.814597e-04  -8.809124e-02  0 
 -8.809124e-02  2.148393e-04  0 
 0  0  0 

 3.851984e-02  -1.531547e-02  0 
 -1.531547e-02  -3.327082e-03  0 
 0  0  0 

 5.219303e-01  -1.251523e-02  0 
 -1.251523e-02  -2.344679e-02  0 
 0  0  0 

TENSORS element_stresses FLOAT
 -5.222196e-01  -1.242661e-02  0 
 -1.242661e-02  2.342302e-02  0 
 0  0  0 

 -3.851196e-02  -1.540146e-02  0 
 -1.540146e-02  3.362017e-03  0 
 0  0  0 

 2.814597e-04  -8.809124e-02  0 
 -8.809124e-02  2.148393e-04  0 
 0  0  0 

 3.851984e-02  -1.531547e-02  0 
 -1.531547e-02  -3.327082e-03  0 
 0  0  0 

 5.219303e-01  -1.251523e-02  0 
 -1.251523e-02  -2.344679e-02  0 
 0  0  0 

