# vtk DataFile Version 3.1
this is an vtk file created by FEMAC
ASCII
DATASET UNSTRUCTURED_GRID
POINTS 12 FLOAT
4.000000 0.000000 0.000000
4.500000 0.000000 0.000000
4.000000 0.200000 0.000000
4.000000 0.400000 0.000000
4.000000 0.600000 0.000000
4.000000 0.800000 0.000000
4.000000 1.000000 0.000000
4.500000 0.200000 0.000000
4.500000 0.400000 0.000000
4.500000 0.600000 0.000000
4.500000 0.800000 0.000000
4.500000 1.000000 0.000000
CELLS 5 25 
4 0 1 7 2
4 2 7 8 3
4 3 8 9 4
4 4  9 10  5
4 5 10 11  6
CELL_TYPES 5
9 9 9 9 9 
POINT_DATA 12
VECTORS displacement_ITER1 FLOAT
 -5.135638e-03  -2.361896e-02  0 
 -5.225135e-03  -2.887361e-02  0 
 -3.011401e-03  -2.359869e-02  0 
 -9.913420e-04  -2.358382e-02  0 
 1.056648e-03  -2.358379e-02  0 
 3.076669e-03  -2.359823e-02  0 
 5.200815e-03  -2.361847e-02  0 
 -3.145661e-03  -2.885835e-02  0 
 -1.020147e-03  -2.881848e-02  0 
 1.085301e-03  -2.881845e-02  0 
 3.210851e-03  -2.885790e-02  0 
 5.290417e-03  -2.887313e-02  0 
VECTORS displacement_ITER2 FLOAT
 -5.009102e-03  -2.314076e-02  0 
 -5.095106e-03  -2.824223e-02  0 
 -2.943748e-03  -2.312250e-02  0 
 -9.844142e-04  -2.311165e-02  0 
 1.010602e-03  -2.311166e-02  0 
 2.969933e-03  -2.312264e-02  0 
 5.035319e-03  -2.314093e-02  0 
 -3.082004e-03  -2.822754e-02  0 
 -1.012604e-03  -2.820738e-02  0 
 1.038826e-03  -2.820739e-02  0 
 3.108229e-03  -2.822768e-02  0 
 5.121298e-03  -2.824239e-02  0 
VECTORS displacement_ITER3 FLOAT
 -4.917081e-03  -2.283645e-02  0 
 -5.000785e-03  -2.784594e-02  0 
 -2.886539e-03  -2.281914e-02  0 
 -9.633430e-04  -2.280934e-02  0 
 1.000268e-03  -2.280935e-02  0 
 2.923468e-03  -2.281940e-02  0 
 4.954066e-03  -2.283674e-02  0 
 -3.027284e-03  -2.783219e-02  0 
 -9.911690e-04  -2.782363e-02  0 
 1.028163e-03  -2.782364e-02  0 
 3.064274e-03  -2.783245e-02  0 
 5.037720e-03  -2.784622e-02  0 
VECTORS displacement_ITER4 FLOAT
 -4.895144e-03  -2.275339e-02  0 
 -4.978467e-03  -2.774311e-02  0 
 -2.871586e-03  -2.273577e-02  0 
 -9.563318e-04  -2.272471e-02  0 
 9.996265e-04  -2.272472e-02  0 
 2.914896e-03  -2.273589e-02  0 
 4.938488e-03  -2.275352e-02  0 
 -3.012947e-03  -2.772993e-02  0 
 -9.841711e-04  -2.772097e-02  0 
 1.027498e-03  -2.772098e-02  0 
 3.056285e-03  -2.773007e-02  0 
 5.021787e-03  -2.774325e-02  0 
VECTORS displacement_ITER5 FLOAT
 -4.887186e-03  -2.271903e-02  0 
 -4.970444e-03  -2.770136e-02  0 
 -2.866173e-03  -2.270120e-02  0 
 -9.541352e-04  -2.268919e-02  0 
 9.984083e-04  -2.268919e-02  0 
 2.910479e-03  -2.270123e-02  0 
 4.931518e-03  -2.271907e-02  0 
 -3.007806e-03  -2.768841e-02  0 
 -9.819773e-04  -2.767764e-02  0 
 1.026272e-03  -2.767764e-02  0 
 3.052119e-03  -2.768846e-02  0 
 5.014763e-03  -2.770141e-02  0 
VECTORS displacement_ITER6 FLOAT
 -4.884801e-03  -2.271064e-02  0 
 -4.968080e-03  -2.769109e-02  0 
 -2.864474e-03  -2.269280e-02  0 
 -9.534562e-04  -2.268049e-02  0 
 9.978802e-04  -2.268046e-02  0 
 2.908893e-03  -2.269277e-02  0 
 4.929196e-03  -2.271058e-02  0 
 -3.006204e-03  -2.767810e-02  0 
 -9.812753e-04  -2.766585e-02  0 
 1.025669e-03  -2.766585e-02  0 
 3.050610e-03  -2.767812e-02  0 
 5.012488e-03  -2.769110e-02  0 
VECTORS displacement_ITER7 FLOAT
 -4.883339e-03  -2.270496e-02  0 
 -4.966708e-03  -2.768448e-02  0 
 -2.863524e-03  -2.268721e-02  0 
 -9.532963e-04  -2.267485e-02  0 
 9.971352e-04  -2.267490e-02  0 
 2.907413e-03  -2.268725e-02  0 
 4.927297e-03  -2.270504e-02  0 
 -3.005295e-03  -2.767140e-02  0 
 -9.809610e-04  -2.765764e-02  0 
 1.024857e-03  -2.765763e-02  0 
 3.049197e-03  -2.767137e-02  0 
 5.010635e-03  -2.768444e-02  0 
VECTORS displacement_ITER8 FLOAT
 -4.882955e-03  -2.270296e-02  0 
 -4.966350e-03  -2.768241e-02  0 
 -2.863110e-03  -2.268519e-02  0 
 -9.529301e-04  -2.267300e-02  0 
 9.974368e-04  -2.267297e-02  0 
 2.907603e-03  -2.268515e-02  0 
 4.927395e-03  -2.270289e-02  0 
 -3.004884e-03  -2.766932e-02  0 
 -9.805315e-04  -2.765533e-02  0 
 1.025030e-03  -2.765534e-02  0 
 3.049366e-03  -2.766932e-02  0 
 5.010795e-03  -2.768243e-02  0 
VECTORS displacement_ITER9 FLOAT
 -4.883798e-03  -2.270097e-02  0 
 -4.967242e-03  -2.768093e-02  0 
 -2.863838e-03  -2.268319e-02  0 
 -9.534506e-04  -2.267128e-02  0 
 9.972560e-04  -2.267127e-02  0 
 2.907623e-03  -2.268317e-02  0 
 4.927577e-03  -2.270094e-02  0 
 -3.005579e-03  -2.766782e-02  0 
 -9.809165e-04  -2.765413e-02  0 
 1.024659e-03  -2.765410e-02  0 
 3.049341e-03  -2.766779e-02  0 
 5.011053e-03  -2.768088e-02  0 
VECTORS displacement_ITER10 FLOAT
 -4.884142e-03  -2.270102e-02  0 
 -4.967626e-03  -2.768120e-02  0 
 -2.864116e-03  -2.268324e-02  0 
 -9.535911e-04  -2.267134e-02  0 
 9.973541e-04  -2.267135e-02  0 
 2.907876e-03  -2.268324e-02  0 
 4.927926e-03  -2.270103e-02  0 
 -3.005832e-03  -2.766811e-02  0 
 -9.809573e-04  -2.765464e-02  0 
 1.024733e-03  -2.765464e-02  0 
 3.049600e-03  -2.766812e-02  0 
 5.011403e-03  -2.768121e-02  0 
VECTORS displacement_ITER11 FLOAT
 -4.884239e-03  -2.270192e-02  0 
 -4.967723e-03  -2.768218e-02  0 
 -2.864166e-03  -2.268413e-02  0 
 -9.535624e-04  -2.267213e-02  0 
 9.975161e-04  -2.267213e-02  0 
 2.908116e-03  -2.268413e-02  0 
 4.928194e-03  -2.270193e-02  0 
 -3.005892e-03  -2.766909e-02  0 
 -9.809129e-04  -2.765572e-02  0 
 1.024880e-03  -2.765573e-02  0 
 3.049849e-03  -2.766910e-02  0 
 5.011670e-03  -2.768219e-02  0 
VECTORS displacement_ITER12 FLOAT
 -4.884265e-03  -2.270246e-02  0 
 -4.967741e-03  -2.768273e-02  0 
 -2.864177e-03  -2.268466e-02  0 
 -9.535532e-04  -2.267261e-02  0 
 9.975624e-04  -2.267261e-02  0 
 2.908181e-03  -2.268466e-02  0 
 4.928266e-03  -2.270245e-02  0 
 -3.005917e-03  -2.766965e-02  0 
 -9.809106e-04  -2.765628e-02  0 
 1.024917e-03  -2.765628e-02  0 
 3.049921e-03  -2.766965e-02  0 
 5.011743e-03  -2.768273e-02  0 
VECTORS displacement_ITER13 FLOAT
 -4.884248e-03  -2.270271e-02  0 
 -4.967718e-03  -2.768296e-02  0 
 -2.864162e-03  -2.268491e-02  0 
 -9.535501e-04  -2.267284e-02  0 
 9.975557e-04  -2.267284e-02  0 
 2.908166e-03  -2.268491e-02  0 
 4.928252e-03  -2.270270e-02  0 
 -3.005915e-03  -2.766988e-02  0 
 -9.809108e-04  -2.765649e-02  0 
 1.024912e-03  -2.765649e-02  0 
 3.049917e-03  -2.766988e-02  0 
 5.011725e-03  -2.768296e-02  0 
VECTORS displacement_ITER14 FLOAT
 -4.884217e-03  -2.270278e-02  0 
 -4.967684e-03  -2.768300e-02  0 
 -2.864138e-03  -2.268498e-02  0 
 -9.535447e-04  -2.267292e-02  0 
 9.975425e-04  -2.267291e-02  0 
 2.908137e-03  -2.268498e-02  0 
 4.928220e-03  -2.270278e-02  0 
 -3.005899e-03  -2.766992e-02  0 
 -9.809049e-04  -2.765652e-02  0 
 1.024903e-03  -2.765652e-02  0 
 3.049899e-03  -2.766992e-02  0 
 5.011686e-03  -2.768300e-02  0 
VECTORS displacement_ITER15 FLOAT
 -4.884202e-03  -2.270275e-02  0 
 -4.967667e-03  -2.768295e-02  0 
 -2.864127e-03  -2.268495e-02  0 
 -9.535416e-04  -2.267289e-02  0 
 9.975382e-04  -2.267288e-02  0 
 2.908125e-03  -2.268495e-02  0 
 4.928202e-03  -2.270275e-02  0 
 -3.005891e-03  -2.766987e-02  0 
 -9.809018e-04  -2.765647e-02  0 
 1.024899e-03  -2.765647e-02  0 
 3.049889e-03  -2.766987e-02  0 
 5.011666e-03  -2.768295e-02  0 
VECTORS displacement_ITER16 FLOAT
 -4.884196e-03  -2.270274e-02  0 
 -4.967661e-03  -2.768293e-02  0 
 -2.864124e-03  -2.268494e-02  0 
 -9.535403e-04  -2.267287e-02  0 
 9.975377e-04  -2.267287e-02  0 
 2.908123e-03  -2.268493e-02  0 
 4.928198e-03  -2.270273e-02  0 
 -3.005888e-03  -2.766985e-02  0 
 -9.809006e-04  -2.765645e-02  0 
 1.024899e-03  -2.765646e-02  0 
 3.049887e-03  -2.766985e-02  0 
 5.011662e-03  -2.768293e-02  0 
VECTORS displacement_ITER17 FLOAT
 -4.884195e-03  -2.270273e-02  0 
 -4.967660e-03  -2.768293e-02  0 
 -2.864122e-03  -2.268493e-02  0 
 -9.535394e-04  -2.267287e-02  0 
 9.975373e-04  -2.267287e-02  0 
 2.908123e-03  -2.268493e-02  0 
 4.928197e-03  -2.270273e-02  0 
 -3.005886e-03  -2.766985e-02  0 
 -9.808996e-04  -2.765645e-02  0 
 1.024898e-03  -2.765645e-02  0 
 3.049886e-03  -2.766985e-02  0 
 5.011661e-03  -2.768293e-02  0 
VECTORS displacement_ITER18 FLOAT
 -4.884196e-03  -2.270273e-02  0 
 -4.967661e-03  -2.768293e-02  0 
 -2.864123e-03  -2.268494e-02  0 
 -9.535392e-04  -2.267287e-02  0 
 9.975368e-04  -2.267287e-02  0 
 2.908122e-03  -2.268493e-02  0 
 4.928197e-03  -2.270273e-02  0 
 -3.005887e-03  -2.766985e-02  0 
 -9.808996e-04  -2.765645e-02  0 
 1.024898e-03  -2.765645e-02  0 
 3.049885e-03  -2.766985e-02  0 
 5.011661e-03  -2.768293e-02  0 
VECTORS displacement_ITER19 FLOAT
 -4.884196e-03  -2.270273e-02  0 
 -4.967661e-03  -2.768293e-02  0 
 -2.864123e-03  -2.268494e-02  0 
 -9.535393e-04  -2.267287e-02  0 
 9.975370e-04  -2.267287e-02  0 
 2.908123e-03  -2.268493e-02  0 
 4.928197e-03  -2.270273e-02  0 
 -3.005887e-03  -2.766985e-02  0 
 -9.808997e-04  -2.765645e-02  0 
 1.024898e-03  -2.765645e-02  0 
 3.049886e-03  -2.766985e-02  0 
 5.011662e-03  -2.768293e-02  0 
VECTORS displacement_ITER20 FLOAT
 -4.884196e-03  -2.270273e-02  0 
 -4.967661e-03  -2.768293e-02  0 
 -2.864123e-03  -2.268494e-02  0 
 -9.535390e-04  -2.267287e-02  0 
 9.975374e-04  -2.267287e-02  0 
 2.908123e-03  -2.268493e-02  0 
 4.928197e-03  -2.270273e-02  0 
 -3.005887e-03  -2.766985e-02  0 
 -9.808995e-04  -2.765645e-02  0 
 1.024899e-03  -2.765645e-02  0 
 3.049886e-03  -2.766985e-02  0 
 5.011662e-03  -2.768293e-02  0 
VECTORS displacement_ITER21 FLOAT
 -4.884196e-03  -2.270273e-02  0 
 -4.967661e-03  -2.768293e-02  0 
 -2.864123e-03  -2.268494e-02  0 
 -9.535392e-04  -2.267287e-02  0 
 9.975372e-04  -2.267287e-02  0 
 2.908123e-03  -2.268493e-02  0 
 4.928197e-03  -2.270273e-02  0 
 -3.005887e-03  -2.766985e-02  0 
 -9.808997e-04  -2.765645e-02  0 
 1.024898e-03  -2.765645e-02  0 
 3.049886e-03  -2.766985e-02  0 
 5.011662e-03  -2.768293e-02  0 
VECTORS displacement_ITER22 FLOAT
 -4.884196e-03  -2.270273e-02  0 
 -4.967661e-03  -2.768293e-02  0 
 -2.864123e-03  -2.268494e-02  0 
 -9.535391e-04  -2.267287e-02  0 
 9.975372e-04  -2.267287e-02  0 
 2.908123e-03  -2.268493e-02  0 
 4.928197e-03  -2.270273e-02  0 
 -3.005887e-03  -2.766985e-02  0 
 -9.808997e-04  -2.765645e-02  0 
 1.024898e-03  -2.765645e-02  0 
 3.049886e-03  -2.766985e-02  0 
 5.011662e-03  -2.768293e-02  0 
VECTORS displacement_ITER23 FLOAT
 -4.884196e-03  -2.270273e-02  0 
 -4.967661e-03  -2.768293e-02  0 
 -2.864123e-03  -2.268494e-02  0 
 -9.535391e-04  -2.267287e-02  0 
 9.975372e-04  -2.267287e-02  0 
 2.908123e-03  -2.268493e-02  0 
 4.928197e-03  -2.270273e-02  0 
 -3.005887e-03  -2.766985e-02  0 
 -9.808997e-04  -2.765645e-02  0 
 1.024898e-03  -2.765645e-02  0 
 3.049886e-03  -2.766985e-02  0 
 5.011662e-03  -2.768293e-02  0 
VECTORS displacement_ITER24 FLOAT
 -4.884196e-03  -2.270273e-02  0 
 -4.967661e-03  -2.768293e-02  0 
 -2.864123e-03  -2.268494e-02  0 
 -9.535391e-04  -2.267287e-02  0 
 9.975372e-04  -2.267287e-02  0 
 2.908123e-03  -2.268493e-02  0 
 4.928197e-03  -2.270273e-02  0 
 -3.005887e-03  -2.766985e-02  0 
 -9.808997e-04  -2.765645e-02  0 
 1.024898e-03  -2.765645e-02  0 
 3.049886e-03  -2.766985e-02  0 
 5.011662e-03  -2.768293e-02  0 
VECTORS displacement_ITER25 FLOAT
 -4.884196e-03  -2.270273e-02  0 
 -4.967661e-03  -2.768293e-02  0 
 -2.864123e-03  -2.268494e-02  0 
 -9.535391e-04  -2.267287e-02  0 
 9.975372e-04  -2.267287e-02  0 
 2.908123e-03  -2.268493e-02  0 
 4.928197e-03  -2.270273e-02  0 
 -3.005887e-03  -2.766985e-02  0 
 -9.808997e-04  -2.765645e-02  0 
 1.024898e-03  -2.765645e-02  0 
 3.049886e-03  -2.766985e-02  0 
 5.011662e-03  -2.768293e-02  0 
CELL_DATA 5
TENSORS element_stresses FLOAT
 -2.220575e-01  -8.072896e-03  0 
 -8.072896e-03  1.057145e-02  0 
 0  0  0 

 -1.648653e-02  -9.966633e-03  0 
 -9.966633e-03  1.419684e-03  0 
 0  0  0 

 1.193976e-06  -5.767103e-02  0 
 -5.767103e-02  1.784862e-06  0 
 0  0  0 

 1.648669e-02  -9.966587e-03  0 
 -9.966587e-03  -1.419112e-03  0 
 0  0  0 

 2.220561e-01  -8.072851e-03  0 
 -8.072851e-03  -1.057109e-02  0 
 0  0  0 

TENSORS element_stresses FLOAT
 -2.220575e-01  -8.072896e-03  0 
 -8.072896e-03  1.057145e-02  0 
 0  0  0 

 -1.648653e-02  -9.966633e-03  0 
 -9.966633e-03  1.419684e-03  0 
 0  0  0 

 1.193976e-06  -5.767103e-02  0 
 -5.767103e-02  1.784862e-06  0 
 0  0  0 

 1.648669e-02  -9.966587e-03  0 
 -9.966587e-03  -1.419112e-03  0 
 0  0  0 

 2.220561e-01  -8.072851e-03  0 
 -8.072851e-03  -1.057109e-02  0 
 0  0  0 

