# vtk DataFile Version 3.1
this is an vtk file created by FEMAC
ASCII
DATASET UNSTRUCTURED_GRID
POINTS 12 FLOAT
5.000000 0.000000 0.000000
5.500000 0.000000 0.000000
5.000000 0.200000 0.000000
5.000000 0.400000 0.000000
5.000000 0.600000 0.000000
5.000000 0.800000 0.000000
5.000000 1.000000 0.000000
5.500000 0.200000 0.000000
5.500000 0.400000 0.000000
5.500000 0.600000 0.000000
5.500000 0.800000 0.000000
5.500000 1.000000 0.000000
CELLS 5 25 
4 0 1 7 2
4 2 7 8 3
4 3 8 9 4
4 4  9 10  5
4 5 10 11  6
CELL_TYPES 5
9 9 9 9 9 
POINT_DATA 12
VECTORS displacement_ITER1 FLOAT
 -5.545542e-03  -3.428848e-02  0 
 -5.593968e-03  -3.991937e-02  0 
 -3.281207e-03  -3.427668e-02  0 
 -1.076489e-03  -3.426646e-02  0 
 1.142303e-03  -3.426643e-02  0 
 3.346984e-03  -3.427622e-02  0 
 5.611227e-03  -3.428800e-02  0 
 -3.353287e-03  -3.991140e-02  0 
 -1.093519e-03  -3.988794e-02  0 
 1.159181e-03  -3.988792e-02  0 
 3.418986e-03  -3.991094e-02  0 
 5.659759e-03  -3.991889e-02  0 
VECTORS displacement_ITER2 FLOAT
 -5.401941e-03  -3.351893e-02  0 
 -5.448310e-03  -3.898384e-02  0 
 -3.202974e-03  -3.350862e-02  0 
 -1.065338e-03  -3.350352e-02  0 
 1.091348e-03  -3.350353e-02  0 
 3.228981e-03  -3.350876e-02  0 
 5.427980e-03  -3.351909e-02  0 
 -3.277331e-03  -3.897610e-02  0 
 -1.081643e-03  -3.896377e-02  0 
 1.107687e-03  -3.896377e-02  0 
 3.303377e-03  -3.897624e-02  0 
 5.474324e-03  -3.898400e-02  0 
VECTORS displacement_ITER3 FLOAT
 -5.300068e-03  -3.303760e-02  0 
 -5.345103e-03  -3.840331e-02  0 
 -3.139775e-03  -3.302793e-02  0 
 -1.041791e-03  -3.302455e-02  0 
 1.078415e-03  -3.302456e-02  0 
 3.176403e-03  -3.302819e-02  0 
 5.336751e-03  -3.303789e-02  0 
 -3.215531e-03  -3.839615e-02  0 
 -1.057659e-03  -3.839076e-02  0 
 1.094352e-03  -3.839077e-02  0 
 3.252219e-03  -3.839641e-02  0 
 5.381736e-03  -3.840360e-02  0 
VECTORS displacement_ITER4 FLOAT
 -5.276663e-03  -3.291176e-02  0 
 -5.321507e-03  -3.825615e-02  0 
 -3.124285e-03  -3.290179e-02  0 
 -1.034574e-03  -3.289695e-02  0 
 1.077747e-03  -3.289695e-02  0 
 3.167459e-03  -3.290191e-02  0 
 5.319862e-03  -3.291190e-02  0 
 -3.200384e-03  -3.824941e-02  0 
 -1.050420e-03  -3.824425e-02  0 
 1.093624e-03  -3.824425e-02  0 
 3.243588e-03  -3.824954e-02  0 
 5.364684e-03  -3.825629e-02  0 
VECTORS displacement_ITER5 FLOAT
 -5.268340e-03  -3.285989e-02  0 
 -5.313173e-03  -3.819609e-02  0 
 -3.118962e-03  -3.284973e-02  0 
 -1.032439e-03  -3.284366e-02  0 
 1.076732e-03  -3.284366e-02  0 
 3.163252e-03  -3.284977e-02  0 
 5.312637e-03  -3.285993e-02  0 
 -3.195205e-03  -3.818952e-02  0 
 -1.048276e-03  -3.818364e-02  0 
 1.092574e-03  -3.818364e-02  0 
 3.239505e-03  -3.818956e-02  0 
 5.357466e-03  -3.819613e-02  0 
VECTORS displacement_ITER6 FLOAT
 -5.265991e-03  -3.284677e-02  0 
 -5.310863e-03  -3.818072e-02  0 
 -3.117510e-03  -3.283662e-02  0 
 -1.031957e-03  -3.283007e-02  0 
 1.076228e-03  -3.283007e-02  0 
 3.161773e-03  -3.283663e-02  0 
 5.310255e-03  -3.284678e-02  0 
 -3.193788e-03  -3.817413e-02  0 
 -1.047750e-03  -3.816752e-02  0 
 1.092018e-03  -3.816752e-02  0 
 3.238056e-03  -3.817414e-02  0 
 5.355126e-03  -3.818073e-02  0 
VECTORS displacement_ITER7 FLOAT
 -5.264461e-03  -3.283840e-02  0 
 -5.309397e-03  -3.817112e-02  0 
 -3.116547e-03  -3.282830e-02  0 
 -1.031644e-03  -3.282155e-02  0 
 1.075873e-03  -3.282156e-02  0 
 3.160778e-03  -3.282830e-02  0 
 5.308698e-03  -3.283841e-02  0 
 -3.192830e-03  -3.816446e-02  0 
 -1.047337e-03  -3.815705e-02  0 
 1.091571e-03  -3.815705e-02  0 
 3.237064e-03  -3.816445e-02  0 
 5.353631e-03  -3.817111e-02  0 
VECTORS displacement_ITER8 FLOAT
 -5.264532e-03  -3.283626e-02  0 
 -5.309498e-03  -3.816919e-02  0 
 -3.116549e-03  -3.282616e-02  0 
 -1.031621e-03  -3.281960e-02  0 
 1.075904e-03  -3.281959e-02  0 
 3.160815e-03  -3.282613e-02  0 
 5.308779e-03  -3.283622e-02  0 
 -3.192817e-03  -3.816251e-02  0 
 -1.047253e-03  -3.815492e-02  0 
 1.091513e-03  -3.815492e-02  0 
 3.237077e-03  -3.816251e-02  0 
 5.353755e-03  -3.816919e-02  0 
VECTORS displacement_ITER9 FLOAT
 -5.265740e-03  -3.283526e-02  0 
 -5.310769e-03  -3.816930e-02  0 
 -3.117403e-03  -3.282516e-02  0 
 -1.032137e-03  -3.281903e-02  0 
 1.075769e-03  -3.281906e-02  0 
 3.161060e-03  -3.282519e-02  0 
 5.309443e-03  -3.283531e-02  0 
 -3.193626e-03  -3.816262e-02  0 
 -1.047622e-03  -3.815506e-02  0 
 1.091282e-03  -3.815505e-02  0 
 3.237293e-03  -3.816261e-02  0 
 5.354457e-03  -3.816929e-02  0 
VECTORS displacement_ITER10 FLOAT
 -5.266104e-03  -3.283600e-02  0 
 -5.311143e-03  -3.817043e-02  0 
 -3.117572e-03  -3.282588e-02  0 
 -1.032098e-03  -3.281980e-02  0 
 1.076053e-03  -3.281979e-02  0 
 3.161528e-03  -3.282588e-02  0 
 5.310048e-03  -3.283599e-02  0 
 -3.193793e-03  -3.816376e-02  0 
 -1.047548e-03  -3.815631e-02  0 
 1.091511e-03  -3.815632e-02  0 
 3.237751e-03  -3.816378e-02  0 
 5.355084e-03  -3.817045e-02  0 
VECTORS displacement_ITER11 FLOAT
 -5.266277e-03  -3.283724e-02  0 
 -5.311309e-03  -3.817173e-02  0 
 -3.117726e-03  -3.282712e-02  0 
 -1.032176e-03  -3.282089e-02  0 
 1.076107e-03  -3.282089e-02  0 
 3.161653e-03  -3.282711e-02  0 
 5.310197e-03  -3.283723e-02  0 
 -3.193962e-03  -3.816506e-02  0 
 -1.047629e-03  -3.815772e-02  0 
 1.091544e-03  -3.815771e-02  0 
 3.237883e-03  -3.816505e-02  0 
 5.355238e-03  -3.817172e-02  0 
VECTORS displacement_ITER12 FLOAT
 -5.266251e-03  -3.283786e-02  0 
 -5.311284e-03  -3.817228e-02  0 
 -3.117727e-03  -3.282774e-02  0 
 -1.032178e-03  -3.282142e-02  0 
 1.076139e-03  -3.282142e-02  0 
 3.161689e-03  -3.282774e-02  0 
 5.310217e-03  -3.283786e-02  0 
 -3.193972e-03  -3.816561e-02  0 
 -1.047623e-03  -3.815832e-02  0 
 1.091585e-03  -3.815832e-02  0 
 3.237934e-03  -3.816561e-02  0 
 5.355249e-03  -3.817228e-02  0 
VECTORS displacement_ITER13 FLOAT
 -5.266149e-03  -3.283806e-02  0 
 -5.311177e-03  -3.817237e-02  0 
 -3.117657e-03  -3.282793e-02  0 
 -1.032142e-03  -3.282157e-02  0 
 1.076154e-03  -3.282157e-02  0 
 3.161671e-03  -3.282793e-02  0 
 5.310164e-03  -3.283806e-02  0 
 -3.193913e-03  -3.816571e-02  0 
 -1.047587e-03  -3.815842e-02  0 
 1.091604e-03  -3.815842e-02  0 
 3.237928e-03  -3.816571e-02  0 
 5.355189e-03  -3.817237e-02  0 
VECTORS displacement_ITER14 FLOAT
 -5.266074e-03  -3.283804e-02  0 
 -5.311096e-03  -3.817228e-02  0 
 -3.117603e-03  -3.282792e-02  0 
 -1.032122e-03  -3.282155e-02  0 
 1.076136e-03  -3.282155e-02  0 
 3.161617e-03  -3.282792e-02  0 
 5.310086e-03  -3.283804e-02  0 
 -3.193869e-03  -3.816562e-02  0 
 -1.047572e-03  -3.815831e-02  0 
 1.091585e-03  -3.815831e-02  0 
 3.237882e-03  -3.816562e-02  0 
 5.355109e-03  -3.817228e-02  0 
VECTORS displacement_ITER15 FLOAT
 -5.266057e-03  -3.283796e-02  0 
 -5.311078e-03  -3.817219e-02  0 
 -3.117588e-03  -3.282783e-02  0 
 -1.032120e-03  -3.282149e-02  0 
 1.076120e-03  -3.282149e-02  0 
 3.161588e-03  -3.282783e-02  0 
 5.310056e-03  -3.283796e-02  0 
 -3.193856e-03  -3.816552e-02  0 
 -1.047570e-03  -3.815820e-02  0 
 1.091569e-03  -3.815820e-02  0 
 3.237856e-03  -3.816552e-02  0 
 5.355077e-03  -3.817219e-02  0 
VECTORS displacement_ITER16 FLOAT
 -5.266055e-03  -3.283793e-02  0 
 -5.311075e-03  -3.817216e-02  0 
 -3.117587e-03  -3.282781e-02  0 
 -1.032120e-03  -3.282147e-02  0 
 1.076117e-03  -3.282147e-02  0 
 3.161584e-03  -3.282781e-02  0 
 5.310052e-03  -3.283793e-02  0 
 -3.193854e-03  -3.816550e-02  0 
 -1.047569e-03  -3.815818e-02  0 
 1.091567e-03  -3.815818e-02  0 
 3.237852e-03  -3.816550e-02  0 
 5.355073e-03  -3.817216e-02  0 
VECTORS displacement_ITER17 FLOAT
 -5.266054e-03  -3.283793e-02  0 
 -5.311075e-03  -3.817216e-02  0 
 -3.117587e-03  -3.282780e-02  0 
 -1.032120e-03  -3.282147e-02  0 
 1.076118e-03  -3.282147e-02  0 
 3.161585e-03  -3.282780e-02  0 
 5.310052e-03  -3.283793e-02  0 
 -3.193854e-03  -3.816549e-02  0 
 -1.047569e-03  -3.815817e-02  0 
 1.091567e-03  -3.815817e-02  0 
 3.237852e-03  -3.816549e-02  0 
 5.355073e-03  -3.817216e-02  0 
VECTORS displacement_ITER18 FLOAT
 -5.266054e-03  -3.283793e-02  0 
 -5.311075e-03  -3.817216e-02  0 
 -3.117587e-03  -3.282781e-02  0 
 -1.032119e-03  -3.282147e-02  0 
 1.076119e-03  -3.282147e-02  0 
 3.161586e-03  -3.282781e-02  0 
 5.310053e-03  -3.283793e-02  0 
 -3.193854e-03  -3.816549e-02  0 
 -1.047569e-03  -3.815818e-02  0 
 1.091568e-03  -3.815818e-02  0 
 3.237853e-03  -3.816549e-02  0 
 5.355074e-03  -3.817216e-02  0 
VECTORS displacement_ITER19 FLOAT
 -5.266055e-03  -3.283793e-02  0 
 -5.311076e-03  -3.817216e-02  0 
 -3.117587e-03  -3.282781e-02  0 
 -1.032119e-03  -3.282147e-02  0 
 1.076118e-03  -3.282147e-02  0 
 3.161586e-03  -3.282781e-02  0 
 5.310053e-03  -3.283793e-02  0 
 -3.193854e-03  -3.816550e-02  0 
 -1.047569e-03  -3.815818e-02  0 
 1.091568e-03  -3.815818e-02  0 
 3.237853e-03  -3.816550e-02  0 
 5.355074e-03  -3.817216e-02  0 
VECTORS displacement_ITER20 FLOAT
 -5.266055e-03  -3.283793e-02  0 
 -5.311076e-03  -3.817216e-02  0 
 -3.117587e-03  -3.282781e-02  0 
 -1.032119e-03  -3.282147e-02  0 
 1.076119e-03  -3.282147e-02  0 
 3.161586e-03  -3.282781e-02  0 
 5.310054e-03  -3.283793e-02  0 
 -3.193854e-03  -3.816550e-02  0 
 -1.047569e-03  -3.815818e-02  0 
 1.091568e-03  -3.815818e-02  0 
 3.237853e-03  -3.816549e-02  0 
 5.355075e-03  -3.817216e-02  0 
VECTORS displacement_ITER21 FLOAT
 -5.266055e-03  -3.283793e-02  0 
 -5.311076e-03  -3.817216e-02  0 
 -3.117588e-03  -3.282781e-02  0 
 -1.032119e-03  -3.282147e-02  0 
 1.076118e-03  -3.282147e-02  0 
 3.161586e-03  -3.282781e-02  0 
 5.310054e-03  -3.283793e-02  0 
 -3.193854e-03  -3.816549e-02  0 
 -1.047569e-03  -3.815818e-02  0 
 1.091568e-03  -3.815818e-02  0 
 3.237853e-03  -3.816549e-02  0 
 5.355075e-03  -3.817216e-02  0 
VECTORS displacement_ITER22 FLOAT
 -5.266055e-03  -3.283793e-02  0 
 -5.311076e-03  -3.817216e-02  0 
 -3.117588e-03  -3.282781e-02  0 
 -1.032119e-03  -3.282147e-02  0 
 1.076119e-03  -3.282147e-02  0 
 3.161586e-03  -3.282781e-02  0 
 5.310054e-03  -3.283793e-02  0 
 -3.193854e-03  -3.816550e-02  0 
 -1.047569e-03  -3.815818e-02  0 
 1.091568e-03  -3.815818e-02  0 
 3.237853e-03  -3.816550e-02  0 
 5.355075e-03  -3.817216e-02  0 
VECTORS displacement_ITER23 FLOAT
 -5.266055e-03  -3.283793e-02  0 
 -5.311076e-03  -3.817216e-02  0 
 -3.117588e-03  -3.282781e-02  0 
 -1.032119e-03  -3.282147e-02  0 
 1.076118e-03  -3.282147e-02  0 
 3.161586e-03  -3.282781e-02  0 
 5.310054e-03  -3.283793e-02  0 
 -3.193854e-03  -3.816550e-02  0 
 -1.047569e-03  -3.815818e-02  0 
 1.091568e-03  -3.815818e-02  0 
 3.237853e-03  -3.816550e-02  0 
 5.355075e-03  -3.817216e-02  0 
VECTORS displacement_ITER24 FLOAT
 -5.266055e-03  -3.283793e-02  0 
 -5.311076e-03  -3.817216e-02  0 
 -3.117588e-03  -3.282781e-02  0 
 -1.032119e-03  -3.282147e-02  0 
 1.076119e-03  -3.282147e-02  0 
 3.161586e-03  -3.282781e-02  0 
 5.310054e-03  -3.283793e-02  0 
 -3.193854e-03  -3.816550e-02  0 
 -1.047569e-03  -3.815818e-02  0 
 1.091568e-03  -3.815818e-02  0 
 3.237853e-03  -3.816550e-02  0 
 5.355075e-03  -3.817216e-02  0 
VECTORS displacement_ITER25 FLOAT
 -5.266055e-03  -3.283793e-02  0 
 -5.311076e-03  -3.817216e-02  0 
 -3.117588e-03  -3.282781e-02  0 
 -1.032119e-03  -3.282147e-02  0 
 1.076118e-03  -3.282147e-02  0 
 3.161586e-03  -3.282781e-02  0 
 5.310054e-03  -3.283793e-02  0 
 -3.193854e-03  -3.816550e-02  0 
 -1.047569e-03  -3.815818e-02  0 
 1.091568e-03  -3.815818e-02  0 
 3.237853e-03  -3.816550e-02  0 
 5.355075e-03  -3.817216e-02  0 
CELL_DATA 5
TENSORS element_stresses FLOAT
 -1.194458e-01  -5.920151e-03  0 
 -5.920151e-03  6.139549e-03  0 
 0  0  0 

 -8.953095e-03  -7.308739e-03  0 
 -7.308739e-03  7.283721e-04  0 
 0  0  0 

 -1.179644e-07  -4.229220e-02  0 
 -4.229220e-02  -1.523817e-07  0 
 0  0  0 

 8.953082e-03  -7.308749e-03  0 
 -7.308749e-03  -7.284153e-04  0 
 0  0  0 

 1.194459e-01  -5.920163e-03  0 
 -5.920163e-03  -6.139576e-03  0 
 0  0  0 

TENSORS element_stresses FLOAT
 -1.194458e-01  -5.920151e-03  0 
 -5.920151e-03  6.139549e-03  0 
 0  0  0 

 -8.953095e-03  -7.308739e-03  0 
 -7.308739e-03  7.283721e-04  0 
 0  0  0 

 -1.179644e-07  -4.229220e-02  0 
 -4.229220e-02  -1.523817e-07  0 
 0  0  0 

 8.953082e-03  -7.308749e-03  0 
 -7.308749e-03  -7.284153e-04  0 
 0  0  0 

 1.194459e-01  -5.920163e-03  0 
 -5.920163e-03  -6.139576e-03  0 
 0  0  0 

