# vtk DataFile Version 3.1
this is an vtk file created by FEMAC
ASCII
DATASET UNSTRUCTURED_GRID
POINTS 55 FLOAT
0.000000 1.000000 0.000000
1.000000 1.000000 0.000000
0.000000 2.000000 0.000000
1.000000 2.000000 0.000000
0.166667 1.000000 0.000000
0.333333 1.000000 0.000000
0.500000 1.000000 0.000000
0.666667 1.000000 0.000000
0.833333 1.000000 0.000000
0.166667 2.000000 0.000000
0.333333 2.000000 0.000000
0.500000 2.000000 0.000000
0.666667 2.000000 0.000000
0.833333 2.000000 0.000000
0.000000 1.166667 0.000000
0.000000 1.333333 0.000000
0.000000 1.500000 0.000000
0.000000 1.666667 0.000000
0.000000 1.833333 0.000000
1.000000 1.166667 0.000000
1.000000 1.333333 0.000000
1.000000 1.500000 0.000000
1.000000 1.666667 0.000000
1.000000 1.833333 0.000000
0.357651 1.516680 0.000000
0.619661 1.340965 0.000000
0.626063 1.697960 0.000000
0.265181 1.240896 0.000000
0.272058 1.834847 0.000000
0.871050 1.230758 0.000000
0.878823 1.778048 0.000000
0.144877 1.137258 0.000000
0.811170 1.617170 0.000000
0.641104 1.518228 0.000000
0.807657 1.403052 0.000000
0.452642 1.750201 0.000000
0.205546 1.495363 0.000000
0.144904 1.674360 0.000000
0.439027 1.276625 0.000000
0.474715 1.591027 0.000000
0.475144 1.437753 0.000000
0.770722 1.885216 0.000000
0.572111 1.157566 0.000000
0.308489 1.632618 0.000000
0.312987 1.376441 0.000000
0.132656 1.321422 0.000000
0.749506 1.763283 0.000000
0.764362 1.121751 0.000000
0.345885 1.116049 0.000000
0.603981 1.854226 0.000000
0.726345 1.258847 0.000000
0.893749 1.103835 0.000000
0.896576 1.899319 0.000000
0.430544 1.885584 0.000000
0.097272 1.834868 0.000000
CELLS 84 336 
3 4 31  0
3 31 14  0
3 23 30 22
3 26 33 32
3 34 21 32
3 16 37 17
3 37 16 36
3 39 26 35
3 26 39 33
3 25 40 38
3 40 25 33
3 12 41 13
3 28 43 35
3 24 43 36
3 44 27 38
3 27 45 31
3 46 26 32
3 46 30 41
3 30 46 32
3 47  7  8
3 7 47 42
3 48 27 31
3 12 49 41
3 25 50 34
3 50 29 34
3 50 25 42
3 34 33 25
3 32 33 34
3 40 39 24
3 33 39 40
3 39 43 24
3 39 35 43
3 36 44 24
3 37 43 28
3 37 36 43
3 44 40 24
3 38 40 44
3 46 49 26
3 46 41 49
3 50 47 29
3 42 47 50
3 21 22 32
3 22 30 32
3 20 21 34
3 29 20 34
3 29 19 20
3 6 48  5
3 27 48 38
3 45 16 15
3 36 16 45
3 27 44 45
3 36 45 44
3 11 49 12
3 26 49 35
3 42  6  7
3 42 48  6
3 42 25 38
3 38 48 42
3 15 14 45
3 14 31 45
3 4  5 48
3 31  4 48
3 28 10  9
3 51  8  1
3 19 51  1
3 8 51 47
3 13 52  3
3 52 23  3
3 52 13 41
3 29 51 19
3 29 47 51
3 52 30 23
3 41 30 52
3 11 53 49
3 53 35 49
3 53 10 28
3 10 53 11
3 35 53 28
3 54  9  2
3 18 54  2
3 17 54 18
3 28 54 37
3 54 28  9
3 17 37 54
CELL_TYPES 84
5 5 5 5 5 5 5 5 5 5 5 5 5 5 5 5 5 5 5 5 5 5 5 5 5 5 5 5 5 5 5 5 5 5 5 5 5 5 5 5 5 5 5 5 5 5 5 5 5 5 5 5 5 5 5 5 5 5 5 5 5 5 5 5 5 5 5 5 5 5 5 5 5 5 5 5 5 5 5 5 5 5 5 5 
POINT_DATA 55
VECTORS displacement_ITER1 FLOAT
 -1.269701e-20  -6.600900e-21  0 
 -1.363542e-03  6.365875e-04  0 
 -3.922576e-21  -1.179370e-20  0 
 -9.440439e-04  8.638586e-04  0 
 9.471732e-04  7.760960e-04  0 
 1.158849e-03  4.839970e-04  0 
 1.456474e-03  -3.605017e-04  0 
 1.364449e-03  -5.441953e-04  0 
 9.059055e-05  -1.855987e-04  0 
 -9.167890e-05  5.705644e-06  0 
 1.003912e-04  -7.130402e-04  0 
 -6.314793e-05  -8.149287e-04  0 
 -7.667602e-05  -5.241056e-04  0 
 4.127723e-04  -1.626410e-04  0 
 0  0  0 
 0  0  0 
 0  0  0 
 0  0  0 
 0  0  0 
 -3.220504e-03  -2.898392e-03  0 
 -1.650627e-03  -6.609045e-04  0 
 -1.368429e-03  -1.790269e-03  0 
 -1.152018e-03  -7.797896e-04  0 
 -9.511023e-04  -2.353197e-03  0 
 -5.074973e-04  -3.355659e-04  0 
 -9.926219e-04  -2.932276e-04  0 
 -5.289712e-04  -6.010863e-04  0 
 -5.102246e-05  -5.390589e-04  0 
 -2.360689e-04  -2.630543e-04  0 
 -1.430941e-03  -1.948014e-04  0 
 -1.066768e-03  -1.018813e-03  0 
 6.448034e-05  -2.088624e-04  0 
 -7.684419e-04  -9.223897e-04  0 
 -9.027721e-04  -4.051388e-04  0 
 -1.414558e-03  -5.578143e-04  0 
 -3.035197e-04  -4.024861e-04  0 
 -2.493260e-04  -3.100215e-04  0 
 -1.554360e-04  -1.701111e-04  0 
 -3.213798e-04  -4.048187e-04  0 
 -6.100378e-04  -3.672060e-04  0 
 -7.119893e-04  -3.185004e-04  0 
 -7.743034e-05  -2.883004e-04  0 
 -1.439786e-04  -4.568917e-04  0 
 -3.566456e-04  -2.479405e-04  0 
 -3.527587e-04  -4.848571e-04  0 
 -8.167848e-05  -3.602489e-04  0 
 -6.311068e-04  -6.738569e-04  0 
 -9.358622e-04  1.137657e-05  0 
 6.016631e-04  -2.108445e-04  0 
 -8.941611e-05  -5.082540e-04  0 
 -1.100226e-03  -1.596379e-04  0 
 -2.213623e-03  -6.470332e-04  0 
 -6.496275e-05  -8.865007e-04  0 
 -1.047345e-04  -6.515305e-04  0 
 -5.997221e-05  -7.119917e-05  0 
VECTORS displacement_ITER2 FLOAT
 -1.131621e-21  4.588559e-21  0 
 -1.064188e-03  -1.604352e-03  0 
 -4.684641e-21  -1.331504e-20  0 
 -3.328047e-04  -5.578792e-04  0 
 2.154756e-04  -3.920770e-04  0 
 4.395974e-04  -1.233432e-04  0 
 3.317327e-04  4.982887e-04  0 
 6.905924e-04  5.287219e-05  0 
 7.416251e-04  -6.827104e-04  0 
 -5.143925e-05  -1.949677e-04  0 
 -7.665628e-05  -5.136443e-04  0 
 -1.906264e-04  -7.844208e-04  0 
 -2.764772e-04  -9.897747e-04  0 
 -5.315411e-04  -5.310127e-04  0 
 0  0  0 
 0  0  0 
 0  0  0 
 0  0  0 
 0  0  0 
 -1.730552e-03  -1.826159e-03  0 
 -1.790588e-03  -7.335553e-04  0 
 -1.884041e-03  -3.835285e-04  0 
 -8.910610e-04  -8.927568e-04  0 
 -9.446982e-04  -4.262071e-04  0 
 -4.132646e-04  -5.862218e-04  0 
 -7.169108e-04  -7.079737e-04  0 
 -7.154390e-04  -5.719883e-04  0 
 -2.807782e-04  -5.110379e-04  0 
 -2.526854e-04  -3.784744e-04  0 
 -1.015093e-03  -7.518441e-04  0 
 -6.448034e-04  -7.406520e-04  0 
 -9.146518e-05  -4.385323e-04  0 
 -1.091945e-03  -4.049036e-04  0 
 -8.271476e-04  -5.982017e-04  0 
 -1.213360e-03  -6.479463e-04  0 
 -4.995878e-04  -5.810876e-04  0 
 -2.271841e-04  -4.323537e-04  0 
 -1.464230e-04  -2.677655e-04  0 
 -4.082888e-04  -6.912062e-04  0 
 -5.743611e-04  -6.049395e-04  0 
 -5.516678e-04  -6.733523e-04  0 
 -4.345861e-04  -7.650259e-04  0 
 -1.791324e-04  -4.632947e-04  0 
 -3.584203e-04  -5.037496e-04  0 
 -3.284032e-04  -6.008022e-04  0 
 -1.378581e-04  -3.349508e-04  0 
 -6.678428e-04  -6.095424e-04  0 
 -2.500238e-04  -6.269452e-04  0 
 -1.800474e-04  -3.666929e-04  0 
 -4.691959e-04  -7.353024e-04  0 
 -7.030645e-04  -6.931659e-04  0 
 -8.077794e-04  -8.583005e-04  0 
 -6.493286e-04  -4.503781e-04  0 
 -3.140289e-04  -6.260389e-04  0 
 -7.303308e-05  -1.374819e-04  0 
VECTORS displacement_ITER3 FLOAT
 1.058669e-20  1.439102e-20  0 
 -1.338973e-03  -1.734179e-03  0 
 -5.107544e-21  -1.533760e-20  0 
 -5.838714e-04  -7.930217e-04  0 
 -2.761099e-04  -5.499579e-04  0 
 -2.787454e-04  -4.245495e-04  0 
 -3.959128e-04  7.023520e-05  0 
 -2.970269e-04  -8.881994e-05  0 
 -6.256144e-05  -4.612780e-04  0 
 -6.724989e-06  -8.654106e-05  0 
 1.216258e-06  2.261189e-05  0 
 1.847028e-04  -8.619570e-05  0 
 2.101145e-04  -3.503583e-04  0 
 -2.035622e-04  -4.940491e-04  0 
 0  0  0 
 0  0  0 
 0  0  0 
 0  0  0 
 0  0  0 
 -1.266335e-03  -1.015709e-03  0 
 -1.408666e-03  -1.624184e-03  0 
 -1.477110e-03  -1.221726e-03  0 
 -1.156652e-03  -1.573513e-03  0 
 -1.044813e-03  -1.060269e-03  0 
 -4.029830e-04  -4.770501e-04  0 
 -8.475769e-04  -8.632281e-04  0 
 -6.362827e-04  -6.498124e-04  0 
 -4.125953e-04  -4.581934e-04  0 
 -3.352547e-05  -8.659548e-05  0 
 -1.182702e-03  -1.034345e-03  0 
 -7.832173e-04  -1.140076e-03  0 
 -2.177805e-04  -3.638204e-04  0 
 -1.080547e-03  -1.029444e-03  0 
 -8.348014e-04  -8.966628e-04  0 
 -1.071860e-03  -1.116949e-03  0 
 -2.913438e-04  -2.975816e-04  0 
 -2.140808e-04  -2.736559e-04  0 
 -6.108911e-05  -1.019286e-04  0 
 -6.354780e-04  -7.169556e-04  0 
 -5.123923e-04  -5.687550e-04  0 
 -6.348038e-04  -7.093448e-04  0 
 -3.682759e-04  -7.576926e-04  0 
 -6.485468e-04  -6.005502e-04  0 
 -2.396817e-04  -3.005666e-04  0 
 -4.138566e-04  -5.022119e-04  0 
 -1.690322e-04  -2.294458e-04  0 
 -6.723135e-04  -8.211811e-04  0 
 -6.431516e-04  -7.786190e-04  0 
 -5.742955e-04  -5.421582e-04  0 
 -2.739659e-04  -3.810315e-04  0 
 -9.402515e-04  -9.243722e-04  0 
 -7.311774e-04  -7.200805e-04  0 
 -6.485676e-04  -8.414394e-04  0 
 -8.104870e-05  -8.378364e-05  0 
 -1.215687e-05  -6.003096e-05  0 
VECTORS displacement_ITER4 FLOAT
 1.664335e-20  1.930907e-20  0 
 -8.017335e-04  -1.038896e-03  0 
 -5.290073e-21  -1.608606e-20  0 
 -5.715613e-04  -1.010277e-03  0 
 2.679320e-05  1.727316e-04  0 
 -8.713503e-05  -7.180136e-05  0 
 -1.157588e-04  -3.763633e-04  0 
 -3.993276e-04  -5.749771e-04  0 
 -6.009245e-04  -7.244304e-04  0 
 -1.080306e-04  -2.336917e-04  0 
 -1.430003e-04  -3.675085e-04  0 
 -1.153159e-04  -3.763380e-04  0 
 -1.593125e-04  -3.456349e-04  0 
 -2.960804e-04  -6.187339e-04  0 
 0  0  0 
 0  0  0 
 0  0  0 
 0  0  0 
 0  0  0 
 -1.432978e-03  -1.089691e-03  0 
 -1.338493e-03  -1.562954e-03  0 
 -1.155392e-03  -1.170467e-03  0 
 -1.267349e-03  -1.225007e-03  0 
 -1.040890e-03  -1.094361e-03  0 
 -3.717272e-04  -5.368774e-04  0 
 -7.073679e-04  -7.898150e-04  0 
 -6.007840e-04  -7.509533e-04  0 
 -2.708136e-04  -4.203301e-04  0 
 -1.328581e-04  -3.183123e-04  0 
 -1.191742e-03  -1.089788e-03  0 
 -9.251531e-04  -9.887190e-04  0 
 -1.562834e-04  -1.621197e-04  0 
 -9.578825e-04  -1.069923e-03  0 
 -7.330495e-04  -9.014339e-04  0 
 -8.995240e-04  -1.021756e-03  0 
 -3.129265e-04  -4.923352e-04  0 
 -2.010472e-04  -3.369199e-04  0 
 -9.332387e-05  -2.110125e-04  0 
 -4.530778e-04  -6.031084e-04  0 
 -4.726959e-04  -6.524754e-04  0 
 -5.491474e-04  -6.925101e-04  0 
 -5.510059e-04  -6.738185e-04  0 
 -5.132316e-04  -6.427666e-04  0 
 -2.486472e-04  -4.212150e-04  0 
 -3.495845e-04  -5.152108e-04  0 
 -1.483602e-04  -2.379053e-04  0 
 -7.169388e-04  -8.366344e-04  0 
 -7.790906e-04  -8.822976e-04  0 
 -2.005886e-04  -3.477435e-04  0 
 -3.567365e-04  -5.152473e-04  0 
 -8.607503e-04  -8.717659e-04  0 
 -9.516264e-04  -1.038971e-03  0 
 -7.165939e-04  -8.847010e-04  0 
 -1.933367e-04  -3.940287e-04  0 
 -5.108604e-05  -1.569524e-04  0 
VECTORS displacement_ITER5 FLOAT
 1.858340e-20  2.067852e-20  0 
 -6.301370e-04  -1.040454e-03  0 
 -5.336791e-21  -1.641383e-20  0 
 -7.340717e-04  -9.181869e-04  0 
 1.277163e-05  1.571072e-04  0 
 5.133071e-07  6.220927e-06  0 
 6.572365e-06  -3.471695e-04  0 
 -1.871159e-04  -5.314572e-04  0 
 -5.173353e-04  -7.782104e-04  0 
 -1.537185e-04  -1.128284e-04  0 
 -1.871138e-04  -2.798704e-04  0 
 -2.265441e-04  -4.164851e-04  0 
 -2.296405e-04  -4.740416e-04  0 
 -3.329510e-04  -6.499884e-04  0 
 0  0  0 
 0  0  0 
 0  0  0 
 0  0  0 
 0  0  0 
 -1.381335e-03  -1.143049e-03  0 
 -1.346040e-03  -1.295829e-03  0 
 -1.223398e-03  -1.256912e-03  0 
 -1.109951e-03  -1.318598e-03  0 
 -8.265937e-04  -1.264698e-03  0 
 -3.667953e-04  -5.378676e-04  0 
 -6.999570e-04  -8.081305e-04  0 
 -5.943356e-04  -7.246476e-04  0 
 -2.516419e-04  -4.327615e-04  0 
 -1.752624e-04  -2.834919e-04  0 
 -1.074995e-03  -1.025168e-03  0 
 -8.002694e-04  -1.053726e-03  0 
 -1.452249e-04  -1.685025e-04  0 
 -9.179083e-04  -1.024457e-03  0 
 -7.407871e-04  -8.429561e-04  0 
 -9.823052e-04  -9.996521e-04  0 
 -3.507110e-04  -4.891859e-04  0 
 -1.945711e-04  -3.528333e-04  0 
 -9.877437e-05  -2.196961e-04  0 
 -4.198108e-04  -6.281046e-04  0 
 -4.831280e-04  -6.271539e-04  0 
 -5.320749e-04  -6.877174e-04  0 
 -4.973559e-04  -7.423105e-04  0 
 -4.313080e-04  -6.618390e-04  0 
 -2.648175e-04  -4.211437e-04  0 
 -3.272761e-04  -5.305679e-04  0 
 -1.400073e-04  -2.474914e-04  0 
 -6.647010e-04  -8.417935e-04  0 
 -6.434597e-04  -8.274655e-04  0 
 -1.550519e-04  -3.430058e-04  0 
 -3.827877e-04  -5.488515e-04  0 
 -8.037788e-04  -8.734324e-04  0 
 -8.677472e-04  -1.084623e-03  0 
 -6.240251e-04  -1.000336e-03  0 
 -2.595143e-04  -4.050137e-04  0 
 -5.111092e-05  -1.405320e-04  0 
VECTORS displacement_ITER6 FLOAT
 1.854171e-20  2.032838e-20  0 
 -8.030614e-04  -1.196542e-03  0 
 -5.395419e-21  -1.680567e-20  0 
 -6.490979e-04  -1.016574e-03  0 
 -4.978947e-05  -1.482713e-04  0 
 4.936156e-06  -1.792815e-04  0 
 -6.046000e-05  -2.737975e-04  0 
 -1.399697e-04  -3.741256e-04  0 
 -4.763626e-04  -6.349799e-04  0 
 -1.226827e-04  -1.620222e-04  0 
 -1.738038e-04  -3.129349e-04  0 
 -2.413107e-04  -4.718938e-04  0 
 -2.579347e-04  -5.528698e-04  0 
 -3.294045e-04  -5.790604e-04  0 
 0  0  0 
 0  0  0 
 0  0  0 
 0  0  0 
 0  0  0 
 -1.230582e-03  -1.254871e-03  0 
 -1.403155e-03  -1.105507e-03  0 
 -1.320079e-03  -1.350489e-03  0 
 -1.011170e-03  -1.444160e-03  0 
 -7.483549e-04  -1.283493e-03  0 
 -3.715361e-04  -5.560505e-04  0 
 -7.460951e-04  -8.654923e-04  0 
 -5.714211e-04  -7.273962e-04  0 
 -2.902137e-04  -4.876411e-04  0 
 -1.685944e-04  -3.184734e-04  0 
 -9.727300e-04  -1.010598e-03  0 
 -7.070075e-04  -1.099960e-03  0 
 -1.502448e-04  -2.816946e-04  0 
 -9.061624e-04  -1.018017e-03  0 
 -7.673419e-04  -8.376691e-04  0 
 -1.088135e-03  -1.026060e-03  0 
 -3.450780e-04  -5.187407e-04  0 
 -2.011936e-04  -3.643425e-04  0 
 -1.026628e-04  -2.270573e-04  0 
 -4.837782e-04  -6.898062e-04  0 
 -4.878491e-04  -6.348915e-04  0 
 -5.487444e-04  -7.204044e-04  0 
 -4.394174e-04  -7.553708e-04  0 
 -4.785287e-04  -6.618407e-04  0 
 -2.693245e-04  -4.396353e-04  0 
 -3.465486e-04  -5.545510e-04  0 
 -1.421513e-04  -2.732770e-04  0 
 -6.086186e-04  -8.480613e-04  0 
 -6.032992e-04  -7.226221e-04  0 
 -2.508349e-04  -4.597771e-04  0 
 -3.610024e-04  -5.946924e-04  0 
 -7.984892e-04  -8.944861e-04  0 
 -8.065145e-04  -9.938723e-04  0 
 -5.879729e-04  -9.943150e-04  0 
 -2.542414e-04  -4.536589e-04  0 
 -5.221338e-05  -1.469797e-04  0 
VECTORS displacement_ITER7 FLOAT
 1.771555e-20  1.930360e-20  0 
 -8.872642e-04  -1.046114e-03  0 
 -5.381917e-21  -1.705340e-20  0 
 -5.576626e-04  -1.155376e-03  0 
 2.752388e-05  -1.496722e-04  0 
 2.697803e-05  -2.218250e-04  0 
 -1.178875e-04  -2.622155e-04  0 
 -2.269125e-04  -4.279714e-04  0 
 -4.788708e-04  -5.760965e-04  0 
 -1.004625e-04  -2.155190e-04  0 
 -1.742205e-04  -3.381033e-04  0 
 -2.379899e-04  -4.363221e-04  0 
 -3.058005e-04  -5.101534e-04  0 
 -3.651021e-04  -5.680565e-04  0 
 0  0  0 
 0  0  0 
 0  0  0 
 0  0  0 
 0  0  0 
 -1.317472e-03  -1.305934e-03  0 
 -1.384263e-03  -1.239850e-03  0 
 -1.217889e-03  -1.422238e-03  0 
 -9.960043e-04  -1.431646e-03  0 
 -8.060347e-04  -1.298839e-03  0 
 -3.730221e-04  -5.512619e-04  0 
 -7.497680e-04  -8.352652e-04  0 
 -5.491117e-04  -7.600818e-04  0 
 -2.953584e-04  -4.786250e-04  0 
 -1.495533e-04  -3.434150e-04  0 
 -1.042536e-03  -1.021313e-03  0 
 -7.369397e-04  -1.108298e-03  0 
 -1.431623e-04  -2.970675e-04  0 
 -8.540258e-04  -1.065730e-03  0 
 -7.417080e-04  -8.480083e-04  0 
 -1.044960e-03  -1.031241e-03  0 
 -3.251749e-04  -5.376419e-04  0 
 -2.056010e-04  -3.585363e-04  0 
 -1.019954e-04  -2.252144e-04  0 
 -4.914068e-04  -6.614576e-04  0 
 -4.763289e-04  -6.450294e-04  0 
 -5.501013e-04  -7.042068e-04  0 
 -4.729944e-04  -7.388068e-04  0 
 -5.097818e-04  -6.432554e-04  0 
 -2.639546e-04  -4.437493e-04  0 
 -3.536089e-04  -5.417757e-04  0 
 -1.440778e-04  -2.738998e-04  0 
 -6.100781e-04  -8.719263e-04  0 
 -6.988881e-04  -7.412356e-04  0 
 -2.517039e-04  -4.394393e-04  0 
 -3.613137e-04  -6.054955e-04  0 
 -8.332349e-04  -8.732795e-04  0 
 -9.075563e-04  -9.438316e-04  0 
 -6.270227e-04  -9.765481e-04  0 
 -2.365425e-04  -4.560351e-04  0 
 -5.177155e-05  -1.548455e-04  0 
VECTORS displacement_ITER8 FLOAT
 1.652165e-20  1.802468e-20  0 
 -9.086999e-04  -8.573095e-04  0 
 -5.361116e-21  -1.731239e-20  0 
 -5.569745e-04  -1.123996e-03  0 
 8.726664e-05  -3.458188e-05  0 
 2.862235e-05  -1.647904e-04  0 
 -9.769165e-05  -2.863567e-04  0 
 -2.642086e-04  -4.973258e-04  0 
 -4.661556e-04  -5.791035e-04  0 
 -1.373960e-04  -1.856819e-04  0 
 -2.280658e-04  -3.131638e-04  0 
 -2.799964e-04  -3.895681e-04  0 
 -3.461423e-04  -5.013484e-04  0 
 -3.917274e-04  -6.642330e-04  0 
 0  0  0 
 0  0  0 
 0  0  0 
 0  0  0 
 0  0  0 
 -1.436188e-03  -1.296962e-03  0 
 -1.326697e-03  -1.401477e-03  0 
 -1.173786e-03  -1.387642e-03  0 
 -1.028225e-03  -1.355416e-03  0 
 -7.664087e-04  -1.324162e-03  0 
 -3.739294e-04  -5.349702e-04  0 
 -7.390022e-04  -7.830998e-04  0 
 -5.574910e-04  -7.511218e-04  0 
 -2.817015e-04  -4.529130e-04  0 
 -1.653211e-04  -3.319043e-04  0 
 -1.121990e-03  -1.006564e-03  0 
 -7.567886e-04  -1.067355e-03  0 
 -1.369488e-04  -2.610338e-04  0 
 -8.463262e-04  -1.051342e-03  0 
 -7.158127e-04  -8.415585e-04  0 
 -9.792253e-04  -1.022999e-03  0 
 -3.389949e-04  -5.256434e-04  0 
 -2.063253e-04  -3.515707e-04  0 
 -1.036750e-04  -2.253519e-04  0 
 -4.721513e-04  -6.178458e-04  0 
 -4.707316e-04  -6.359142e-04  0 
 -5.459446e-04  -6.712930e-04  0 
 -5.054836e-04  -7.456310e-04  0 
 -5.099847e-04  -6.263274e-04  0 
 -2.660250e-04  -4.364631e-04  0 
 -3.494141e-04  -5.223292e-04  0 
 -1.436913e-04  -2.648261e-04  0 
 -6.300986e-04  -8.594303e-04  0 
 -7.672216e-04  -7.668584e-04  0 
 -2.141622e-04  -3.881192e-04  0 
 -3.974031e-04  -5.883162e-04  0 
 -8.606473e-04  -8.375765e-04  0 
 -1.004234e-03  -9.118278e-04  0 
 -6.028050e-04  -1.000651e-03  0 
 -2.650724e-04  -4.257110e-04  0 
 -5.517560e-05  -1.565761e-04  0 
VECTORS displacement_ITER9 FLOAT
 1.497664e-20  1.643293e-20  0 
 -9.857321e-04  -8.771618e-04  0 
 -5.202111e-21  -1.707195e-20  0 
 -5.051337e-04  -1.072784e-03  0 
 2.904510e-05  -6.539448e-05  0 
 -1.849022e-05  -1.635456e-04  0 
 -6.656924e-05  -2.966141e-04  0 
 -2.354201e-04  -4.082381e-04  0 
 -4.801816e-04  -5.317583e-04  0 
 -1.452950e-04  -1.489886e-04  0 
 -2.208052e-04  -3.134501e-04  0 
 -2.807472e-04  -4.394563e-04  0 
 -3.269179e-04  -5.698682e-04  0 
 -3.930359e-04  -7.476015e-04  0 
 0  0  0 
 0  0  0 
 0  0  0 
 0  0  0 
 0  0  0 
 -1.372894e-03  -1.342231e-03  0 
 -1.352642e-03  -1.406253e-03  0 
 -1.266155e-03  -1.330248e-03  0 
 -1.046241e-03  -1.319751e-03  0 
 -7.079657e-04  -1.250222e-03  0 
 -3.798551e-04  -5.340116e-04  0 
 -7.530471e-04  -7.876927e-04  0 
 -5.715610e-04  -7.362532e-04  0 
 -2.890500e-04  -4.605544e-04  0 
 -1.823008e-04  -3.225755e-04  0 
 -1.097092e-03  -1.017073e-03  0 
 -7.229424e-04  -1.025469e-03  0 
 -1.451446e-04  -2.618495e-04  0 
 -8.763392e-04  -1.001721e-03  0 
 -7.231702e-04  -8.356133e-04  0 
 -1.000455e-03  -1.032746e-03  0 
 -3.592440e-04  -5.296653e-04  0 
 -2.111803e-04  -3.516423e-04  0 
 -1.084617e-04  -2.261371e-04  0 
 -4.934122e-04  -6.217456e-04  0 
 -4.777318e-04  -6.338846e-04  0 
 -5.531479e-04  -6.713257e-04  0 
 -4.906827e-04  -7.824258e-04  0 
 -5.335822e-04  -6.114191e-04  0 
 -2.758718e-04  -4.380648e-04  0 
 -3.573146e-04  -5.205876e-04  0 
 -1.458196e-04  -2.654337e-04  0 
 -6.241936e-04  -8.449669e-04  0 
 -7.593849e-04  -7.100070e-04  0 
 -2.367164e-04  -4.196946e-04  0 
 -4.063807e-04  -6.093963e-04  0 
 -8.636969e-04  -8.335030e-04  0 
 -9.952266e-04  -8.755737e-04  0 
 -5.581618e-04  -9.883137e-04  0 
 -2.798414e-04  -4.442008e-04  0 
 -5.638391e-05  -1.488472e-04  0 
VECTORS displacement_ITER10 FLOAT
 1.370424e-20  1.511335e-20  0 
 -9.831686e-04  -8.964687e-04  0 
 -4.947829e-21  -1.645283e-20  0 
 -4.520904e-04  -1.092516e-03  0 
 -4.028011e-06  -7.857139e-05  0 
 -2.736328e-05  -1.493624e-04  0 
 -6.867401e-05  -2.783630e-04  0 
 -2.029005e-04  -3.935966e-04  0 
 -4.686788e-04  -5.521679e-04  0 
 -1.239091e-04  -1.780897e-04  0 
 -2.062715e-04  -3.082248e-04  0 
 -2.700914e-04  -4.437568e-04  0 
 -3.061699e-04  -5.659142e-04  0 
 -3.803368e-04  -7.406012e-04  0 
 0  0  0 
 0  0  0 
 0  0  0 
 0  0  0 
 0  0  0 
 -1.380052e-03  -1.321643e-03  0 
 -1.373305e-03  -1.383309e-03  0 
 -1.248167e-03  -1.347549e-03  0 
 -1.009751e-03  -1.334546e-03  0 
 -7.513460e-04  -1.243652e-03  0 
 -3.787272e-04  -5.341387e-04  0 
 -7.559184e-04  -7.883489e-04  0 
 -5.636900e-04  -7.427659e-04  0 
 -2.921131e-04  -4.577604e-04  0 
 -1.697817e-04  -3.299924e-04  0 
 -1.101073e-03  -1.007121e-03  0 
 -7.218978e-04  -1.047665e-03  0 
 -1.500830e-04  -2.580856e-04  0 
 -8.588187e-04  -1.009380e-03  0 
 -7.237527e-04  -8.295118e-04  0 
 -1.010906e-03  -1.021112e-03  0 
 -3.484637e-04  -5.316893e-04  0 
 -2.099474e-04  -3.504688e-04  0 
 -1.070887e-04  -2.239258e-04  0 
 -4.933419e-04  -6.280495e-04  0 
 -4.770078e-04  -6.337344e-04  0 
 -5.525927e-04  -6.716586e-04  0 
 -4.810671e-04  -7.849416e-04  0 
 -5.296164e-04  -6.172142e-04  0 
 -2.729334e-04  -4.374556e-04  0 
 -3.557584e-04  -5.210592e-04  0 
 -1.465144e-04  -2.620626e-04  0 
 -6.187315e-04  -8.548396e-04  0 
 -7.429970e-04  -7.043333e-04  0 
 -2.486791e-04  -4.197416e-04  0 
 -3.939827e-04  -6.083589e-04  0 
 -8.653836e-04  -8.317547e-04  0 
 -9.879194e-04  -8.785758e-04  0 
 -5.643548e-04  -9.705237e-04  0 
 -2.701890e-04  -4.467595e-04  0 
 -5.509573e-05  -1.499810e-04  0 
VECTORS displacement_ITER11 FLOAT
 1.255857e-20  1.393487e-20  0 
 -9.498118e-04  -8.826544e-04  0 
 -4.677310e-21  -1.568351e-20  0 
 -4.225044e-04  -1.082876e-03  0 
 1.812186e-05  -5.865328e-05  0 
 -5.527779e-06  -1.551359e-04  0 
 -8.570006e-05  -2.868290e-04  0 
 -2.105122e-04  -4.450585e-04  0 
 -4.676605e-04  -5.778694e-04  0 
 -1.326654e-04  -2.013174e-04  0 
 -2.342736e-04  -3.200791e-04  0 
 -3.100653e-04  -4.411268e-04  0 
 -3.518131e-04  -5.749125e-04  0 
 -3.824034e-04  -7.663910e-04  0 
 0  0  0 
 0  0  0 
 0  0  0 
 0  0  0 
 0  0  0 
 -1.383349e-03  -1.312056e-03  0 
 -1.373882e-03  -1.355512e-03  0 
 -1.215537e-03  -1.346419e-03  0 
 -9.979287e-04  -1.285748e-03  0 
 -7.577525e-04  -1.223195e-03  0 
 -3.726315e-04  -5.420202e-04  0 
 -7.416712e-04  -7.888059e-04  0 
 -5.586941e-04  -7.462698e-04  0 
 -2.841683e-04  -4.562344e-04  0 
 -1.750039e-04  -3.504263e-04  0 
 -1.098746e-03  -1.008391e-03  0 
 -7.299993e-04  -1.024716e-03  0 
 -1.454203e-04  -2.547355e-04  0 
 -8.362226e-04  -1.001296e-03  0 
 -7.120516e-04  -8.216196e-04  0 
 -1.002516e-03  -1.006362e-03  0 
 -3.513124e-04  -5.453160e-04  0 
 -2.066512e-04  -3.586809e-04  0 
 -1.083309e-04  -2.342804e-04  0 
 -4.764498e-04  -6.296879e-04  0 
 -4.721259e-04  -6.392550e-04  0 
 -5.402756e-04  -6.733514e-04  0 
 -4.975669e-04  -7.731193e-04  0 
 -5.138873e-04  -6.323257e-04  0 
 -2.721562e-04  -4.500566e-04  0 
 -3.463973e-04  -5.260195e-04  0 
 -1.443632e-04  -2.639724e-04  0 
 -6.223100e-04  -8.471039e-04  0 
 -7.418146e-04  -7.310645e-04  0 
 -2.340953e-04  -4.091584e-04  0 
 -4.122309e-04  -6.131538e-04  0 
 -8.546132e-04  -8.363853e-04  0 
 -9.852197e-04  -8.955561e-04  0 
 -5.621502e-04  -9.572248e-04  0 
 -2.868839e-04  -4.575990e-04  0 
 -5.856195e-05  -1.611627e-04  0 
VECTORS displacement_ITER12 FLOAT
 1.184010e-20  1.314502e-20  0 
 -9.291517e-04  -9.319882e-04  0 
 -4.398730e-21  -1.483428e-20  0 
 -4.465081e-04  -1.053738e-03  0 
 1.889486e-05  -5.587627e-05  0 
 -7.354634e-06  -1.585896e-04  0 
 -1.010312e-04  -2.839109e-04  0 
 -2.277042e-04  -4.501039e-04  0 
 -4.626933e-04  -5.819936e-04  0 
 -1.404867e-04  -1.706020e-04  0 
 -2.305243e-04  -3.030616e-04  0 
 -3.029649e-04  -4.238018e-04  0 
 -3.489385e-04  -5.775325e-04  0 
 -3.844755e-04  -7.810688e-04  0 
 0  0  0 
 0  0  0 
 0  0  0 
 0  0  0 
 0  0  0 
 -1.363309e-03  -1.309873e-03  0 
 -1.359655e-03  -1.363165e-03  0 
 -1.223682e-03  -1.376135e-03  0 
 -1.000671e-03  -1.304789e-03  0 
 -7.392138e-04  -1.232245e-03  0 
 -3.705466e-04  -5.406846e-04  0 
 -7.391612e-04  -7.999667e-04  0 
 -5.576932e-04  -7.463594e-04  0 
 -2.851665e-04  -4.536016e-04  0 
 -1.760044e-04  -3.336426e-04  0 
 -1.087096e-03  -1.022615e-03  0 
 -7.209082e-04  -1.029788e-03  0 
 -1.463239e-04  -2.529426e-04  0 
 -8.357544e-04  -1.009811e-03  0 
 -7.103934e-04  -8.272050e-04  0 
 -1.004401e-03  -1.026012e-03  0 
 -3.527146e-04  -5.389411e-04  0 
 -2.051859e-04  -3.569299e-04  0 
 -1.062833e-04  -2.308200e-04  0 
 -4.759917e-04  -6.316617e-04  0 
 -4.706506e-04  -6.378521e-04  0 
 -5.375050e-04  -6.760179e-04  0 
 -4.942355e-04  -7.828449e-04  0 
 -5.131045e-04  -6.366282e-04  0 
 -2.710588e-04  -4.456551e-04  0 
 -3.450133e-04  -5.248529e-04  0 
 -1.444020e-04  -2.618194e-04  0 
 -6.179336e-04  -8.519775e-04  0 
 -7.329659e-04  -7.479962e-04  0 
 -2.370343e-04  -4.055911e-04  0 
 -4.123638e-04  -6.131909e-04  0 
 -8.490249e-04  -8.532494e-04  0 
 -9.610292e-04  -9.126019e-04  0 
 -5.522647e-04  -9.694006e-04  0 
 -2.840514e-04  -4.445593e-04  0 
 -5.608770e-05  -1.549071e-04  0 
VECTORS displacement_ITER13 FLOAT
 1.109102e-20  1.233350e-20  0 
 -9.362589e-04  -9.595049e-04  0 
 -4.113647e-21  -1.392599e-20  0 
 -4.316614e-04  -1.056786e-03  0 
 1.135579e-05  -7.218979e-05  0 
 -1.298597e-05  -1.746103e-04  0 
 -9.057947e-05  -2.999760e-04  0 
 -2.309082e-04  -4.439014e-04  0 
 -4.706163e-04  -5.806567e-04  0 
 -1.377022e-04  -1.753272e-04  0 
 -2.231307e-04  -3.201777e-04  0 
 -2.958697e-04  -4.379856e-04  0 
 -3.466692e-04  -5.774000e-04  0 
 -3.867850e-04  -7.697836e-04  0 
 0  0  0 
 0  0  0 
 0  0  0 
 0  0  0 
 0  0  0 
 -1.352272e-03  -1.309772e-03  0 
 -1.349956e-03  -1.350182e-03  0 
 -1.232772e-03  -1.361441e-03  0 
 -1.011776e-03  -1.312604e-03  0 
 -7.385510e-04  -1.240035e-03  0 
 -3.707847e-04  -5.461109e-04  0 
 -7.392214e-04  -8.078305e-04  0 
 -5.588964e-04  -7.490965e-04  0 
 -2.848194e-04  -4.633475e-04  0 
 -1.760260e-04  -3.393835e-04  0 
 -1.075824e-03  -1.021667e-03  0 
 -7.223410e-04  -1.029752e-03  0 
 -1.458737e-04  -2.601023e-04  0 
 -8.463272e-04  -1.011743e-03  0 
 -7.134038e-04  -8.361933e-04  0 
 -1.003289e-03  -1.031150e-03  0 
 -3.515521e-04  -5.442906e-04  0 
 -2.054439e-04  -3.599343e-04  0 
 -1.064611e-04  -2.331080e-04  0 
 -4.795894e-04  -6.399758e-04  0 
 -4.706594e-04  -6.439000e-04  0 
 -5.392204e-04  -6.845885e-04  0 
 -4.900116e-04  -7.799526e-04  0 
 -5.151583e-04  -6.388607e-04  0 
 -2.706565e-04  -4.499345e-04  0 
 -3.465780e-04  -5.308224e-04  0 
 -1.436670e-04  -2.661787e-04  0 
 -6.177444e-04  -8.521297e-04  0 
 -7.279742e-04  -7.445206e-04  0 
 -2.381712e-04  -4.238990e-04  0 
 -4.067950e-04  -6.181490e-04  0 
 -8.448919e-04  -8.569883e-04  0 
 -9.531251e-04  -9.156876e-04  0 
 -5.489293e-04  -9.629329e-04  0 
 -2.793522e-04  -4.555910e-04  0 
 -5.616693e-05  -1.562484e-04  0 
VECTORS displacement_ITER14 FLOAT
 1.029682e-20  1.145978e-20  0 
 -9.189529e-04  -9.464976e-04  0 
 -3.787782e-21  -1.287948e-20  0 
 -4.375902e-04  -1.060114e-03  0 
 1.961731e-05  -5.880016e-05  0 
 -6.453070e-06  -1.569487e-04  0 
 -7.696399e-05  -2.923139e-04  0 
 -2.252907e-04  -4.430801e-04  0 
 -4.664640e-04  -5.926252e-04  0 
 -1.321569e-04  -1.858690e-04  0 
 -2.231722e-04  -3.161248e-04  0 
 -2.924023e-04  -4.412796e-04  0 
 -3.386167e-04  -5.764384e-04  0 
 -3.871182e-04  -7.612842e-04  0 
 0  0  0 
 0  0  0 
 0  0  0 
 0  0  0 
 0  0  0 
 -1.362159e-03  -1.312799e-03  0 
 -1.353344e-03  -1.359818e-03  0 
 -1.225072e-03  -1.354961e-03  0 
 -1.007771e-03  -1.326316e-03  0 
 -7.427656e-04  -1.262737e-03  0 
 -3.704799e-04  -5.456975e-04  0 
 -7.354937e-04  -8.036254e-04  0 
 -5.587102e-04  -7.506551e-04  0 
 -2.831509e-04  -4.600123e-04  0 
 -1.725922e-04  -3.421814e-04  0 
 -1.080084e-03  -1.024089e-03  0 
 -7.235930e-04  -1.042580e-03  0 
 -1.447134e-04  -2.563058e-04  0 
 -8.476010e-04  -1.016475e-03  0 
 -7.132370e-04  -8.373572e-04  0 
 -9.975881e-04  -1.027251e-03  0 
 -3.489462e-04  -5.435737e-04  0 
 -2.053159e-04  -3.591664e-04  0 
 -1.060866e-04  -2.325521e-04  0 
 -4.757982e-04  -6.350145e-04  0 
 -4.702304e-04  -6.441059e-04  0 
 -5.386607e-04  -6.834350e-04  0 
 -4.855444e-04  -7.829433e-04  0 
 -5.085594e-04  -6.325010e-04  0 
 -2.695564e-04  -4.497252e-04  0 
 -3.461638e-04  -5.295007e-04  0 
 -1.437189e-04  -2.652241e-04  0 
 -6.179699e-04  -8.563121e-04  0 
 -7.253913e-04  -7.483453e-04  0 
 -2.310206e-04  -4.136745e-04  0 
 -4.031438e-04  -6.168101e-04  0 
 -8.422543e-04  -8.539126e-04  0 
 -9.558940e-04  -9.244898e-04  0 
 -5.494145e-04  -9.689519e-04  0 
 -2.783819e-04  -4.545382e-04  0 
 -5.612813e-05  -1.572521e-04  0 
VECTORS displacement_ITER15 FLOAT
 9.353623e-21  1.045056e-20  0 
 -9.389389e-04  -9.421582e-04  0 
 -3.456558e-21  -1.180069e-20  0 
 -4.373784e-04  -1.068075e-03  0 
 1.891852e-05  -6.808305e-05  0 
 -9.463613e-06  -1.640285e-04  0 
 -8.361291e-05  -2.930521e-04  0 
 -2.255858e-04  -4.429409e-04  0 
 -4.706676e-04  -5.860121e-04  0 
 -1.370968e-04  -1.859873e-04  0 
 -2.312089e-04  -3.167577e-04  0 
 -3.015536e-04  -4.432488e-04  0 
 -3.464751e-04  -5.779496e-04  0 
 -3.905115e-04  -7.564938e-04  0 
 0  0  0 
 0  0  0 
 0  0  0 
 0  0  0 
 0  0  0 
 -1.358979e-03  -1.316458e-03  0 
 -1.361328e-03  -1.367844e-03  0 
 -1.228066e-03  -1.356406e-03  0 
 -1.011757e-03  -1.330287e-03  0 
 -7.452314e-04  -1.260438e-03  0 
 -3.719901e-04  -5.461928e-04  0 
 -7.394664e-04  -8.044506e-04  0 
 -5.609354e-04  -7.498947e-04  0 
 -2.853858e-04  -4.615945e-04  0 
 -1.758857e-04  -3.439681e-04  0 
 -1.084443e-03  -1.027285e-03  0 
 -7.257409e-04  -1.041885e-03  0 
 -1.453221e-04  -2.600727e-04  0 
 -8.511417e-04  -1.017020e-03  0 
 -7.161142e-04  -8.380488e-04  0 
 -1.000990e-03  -1.028197e-03  0 
 -3.517741e-04  -5.441902e-04  0 
 -2.062119e-04  -3.598739e-04  0 
 -1.070612e-04  -2.338862e-04  0 
 -4.791614e-04  -6.369319e-04  0 
 -4.719559e-04  -6.442782e-04  0 
 -5.412402e-04  -6.841830e-04  0 
 -4.889194e-04  -7.805000e-04  0 
 -5.137971e-04  -6.348985e-04  0 
 -2.710176e-04  -4.506436e-04  0 
 -3.478506e-04  -5.304164e-04  0 
 -1.443288e-04  -2.661016e-04  0 
 -6.203544e-04  -8.548185e-04  0 
 -7.317882e-04  -7.450280e-04  0 
 -2.357754e-04  -4.171707e-04  0 
 -4.073779e-04  -6.166120e-04  0 
 -8.470818e-04  -8.539622e-04  0 
 -9.615850e-04  -9.162090e-04  0 
 -5.539436e-04  -9.673217e-04  0 
 -2.840274e-04  -4.557604e-04  0 
 -5.727300e-05  -1.587596e-04  0 
VECTORS displacement_ITER16 FLOAT
 8.474386e-21  9.489920e-21  0 
 -9.497873e-04  -9.378813e-04  0 
 -3.119141e-21  -1.069638e-20  0 
 -4.411714e-04  -1.077462e-03  0 
 1.902892e-05  -6.923741e-05  0 
 -8.542292e-06  -1.636374e-04  0 
 -8.720984e-05  -2.887491e-04  0 
 -2.198844e-04  -4.399485e-04  0 
 -4.661279e-04  -5.833184e-04  0 
 -1.389299e-04  -1.783866e-04  0 
 -2.267947e-04  -3.186398e-04  0 
 -2.977388e-04  -4.402935e-04  0 
 -3.469610e-04  -5.742715e-04  0 
 -3.921166e-04  -7.563489e-04  0 
 0  0  0 
 0  0  0 
 0  0  0 
 0  0  0 
 0  0  0 
 -1.362024e-03  -1.315148e-03  0 