# vtk DataFile Version 3.1
this is an vtk file created by FEMAC
ASCII
DATASET UNSTRUCTURED_GRID
POINTS 57 FLOAT
0.000000 0.000000 0.000000
1.000000 0.000000 0.000000
0.000000 1.000000 0.000000
1.000000 1.000000 0.000000
0.166667 0.000000 0.000000
0.333333 0.000000 0.000000
0.500000 0.000000 0.000000
0.666667 0.000000 0.000000
0.833333 0.000000 0.000000
0.166667 1.000000 0.000000
0.333333 1.000000 0.000000
0.500000 1.000000 0.000000
0.666667 1.000000 0.000000
0.833333 1.000000 0.000000
0.000000 0.166667 0.000000
0.000000 0.333333 0.000000
0.000000 0.500000 0.000000
0.000000 0.666667 0.000000
0.000000 0.833333 0.000000
1.000000 0.166667 0.000000
1.000000 0.333333 0.000000
1.000000 0.500000 0.000000
1.000000 0.666667 0.000000
1.000000 0.833333 0.000000
0.500911 0.383297 0.000000
0.672554 0.585471 0.000000
0.335199 0.623351 0.000000
0.661258 0.268485 0.000000
0.340549 0.265973 0.000000
0.233762 0.869022 0.000000
0.768580 0.865402 0.000000
0.390837 0.805416 0.000000
0.535309 0.656651 0.000000
0.500612 0.222193 0.000000
0.691286 0.456529 0.000000
0.312944 0.457447 0.000000
0.164709 0.575840 0.000000
0.561411 0.514486 0.000000
0.172635 0.396058 0.000000
0.829444 0.398694 0.000000
0.834588 0.586729 0.000000
0.448438 0.521776 0.000000
0.879758 0.757707 0.000000
0.751666 0.122066 0.000000
0.248976 0.120766 0.000000
0.123921 0.764509 0.000000
0.261723 0.725527 0.000000
0.711742 0.715409 0.000000
0.419620 0.116619 0.000000
0.581517 0.120614 0.000000
0.859839 0.228763 0.000000
0.595522 0.840480 0.000000
0.140915 0.227688 0.000000
0.104870 0.893373 0.000000
0.892995 0.888645 0.000000
0.111312 0.103024 0.000000
0.888968 0.103499 0.000000
CELLS 88 352 
3 30 13 12
3 26 32 31
3 33 24 28
3 24 33 27
3 27 34 24
3 35 28 24
3 25 37 34
3 37 25 32
3 37 24 34
3 41 26 35
3 26 41 32
3 24 41 35
3 42 22 23
3 22 42 40
3 43  7  8
3 5 44  4
3 17 45 18
3 45 17 36
3 46 26 31
3 29 46 31
3 26 46 36
3 37 41 24
3 37 32 41
3 45 46 29
3 45 36 46
3 11 10 31
3 10 29 31
3 9 29 10
3 21 39 20
3 34 27 39
3 38 16 15
3 28 35 38
3 40 21 22
3 21 40 39
3 34 40 25
3 34 39 40
3 16 36 17
3 36 16 38
3 36 35 26
3 38 35 36
3 47 25 40
3 42 47 40
3 48  5  6
3 5 48 44
3 7 49  6
3 49  7 43
3 50 39 27
3 43 50 27
3 51 31 32
3 38 52 28
3 52 44 28
3 53  9  2
3 53 18 45
3 18 53  2
3 13 54  3
3 54 23  3
3 54 13 30
3 49 48  6
3 33 48 49
3 30 47 42
3 53 29  9
3 45 29 53
3 28 48 33
3 28 44 48
3 49 27 33
3 43 27 49
3 54 42 23
3 30 42 54
3 50 20 39
3 15 52 38
3 11 51 12
3 51 11 31
3 51 30 12
3 50 19 20
3 14 52 15
3 47 32 25
3 47 30 51
3 47 51 32
3 4 55  0
3 55 14  0
3 56  8  1
3 19 56  1
3 14 55 52
3 55 44 52
3 44 55  4
3 56 19 50
3 43 56 50
3 56 43  8
CELL_TYPES 88
5 5 5 5 5 5 5 5 5 5 5 5 5 5 5 5 5 5 5 5 5 5 5 5 5 5 5 5 5 5 5 5 5 5 5 5 5 5 5 5 5 5 5 5 5 5 5 5 5 5 5 5 5 5 5 5 5 5 5 5 5 5 5 5 5 5 5 5 5 5 5 5 5 5 5 5 5 5 5 5 5 5 5 5 5 5 5 5 
POINT_DATA 57
VECTORS displacement_ITER1 FLOAT
 0  0  0 
 -5.081894e-04  -9.371974e-04  0 
 1.269701e-20  6.600900e-21  0 
 -5.758896e-04  -1.354030e-03  0 
 -1.893062e-04  -2.574906e-04  0 
 -2.896948e-04  -4.102639e-04  0 
 -3.547483e-04  -5.438986e-04  0 
 -4.028124e-04  -6.578911e-04  0 
 -4.523903e-04  -7.773512e-04  0 
 4.685267e-05  -1.057517e-04  0 
 5.247601e-05  -2.277525e-04  0 
 9.160446e-06  -3.792560e-04  0 
 -8.445238e-05  -5.791403e-04  0 
 -2.445871e-04  -8.255268e-04  0 
 0  0  0 
 0  0  0 
 0  0  0 
 0  0  0 
 0  0  0 
 -3.534558e-04  -8.682482e-04  0 
 -2.591726e-04  -8.154224e-04  0 
 -1.956973e-04  -7.763794e-04  0 
 -1.770522e-04  -8.055978e-04  0 
 -2.321686e-04  -8.995413e-04  0 
 -1.688416e-04  -4.568546e-04  0 
 -1.869099e-04  -6.412202e-04  0 
 -1.023353e-04  -2.855034e-04  0 
 -2.377392e-04  -5.956900e-04  0 
 -1.377900e-04  -3.144318e-04  0 
 -1.232154e-05  -1.437012e-04  0 
 -2.780294e-04  -8.269769e-04  0 
 -8.304292e-05  -3.193263e-04  0 
 -1.657782e-04  -5.139696e-04  0 
 -2.159678e-04  -4.773932e-04  0 
 -1.868181e-04  -6.218204e-04  0 
 -1.036982e-04  -2.758053e-04  0 
 -4.888446e-05  -1.261988e-04  0 
 -1.701566e-04  -5.239096e-04  0 
 -5.906126e-05  -1.413425e-04  0 
 -2.074297e-04  -7.051744e-04  0 
 -1.874205e-04  -7.374942e-04  0 
 -1.437893e-04  -4.108698e-04  0 
 -2.313472e-04  -8.639504e-04  0 
 -3.387904e-04  -6.847509e-04  0 
 -1.510471e-04  -2.664752e-04  0 
 -1.957502e-05  -6.953731e-05  0 
 -6.243436e-05  -1.974634e-04  0 
 -2.174124e-04  -7.216807e-04  0 
 -2.407512e-04  -4.366253e-04  0 
 -2.973100e-04  -5.676627e-04  0 
 -2.899675e-04  -7.473637e-04  0 
 -1.637239e-04  -5.704127e-04  0 
 -5.639592e-05  -1.180696e-04  0 
 -1.635151e-07  -4.662546e-05  0 
 -3.792350e-04  -1.039732e-03  0 
 -6.215160e-05  -1.050137e-04  0 
 -3.806242e-04  -7.942761e-04  0 
VECTORS displacement_ITER2 FLOAT
 0  0  0 
 -4.442842e-04  -8.606912e-04  0 
 1.131621e-21  -4.588559e-21  0 
 -7.565613e-04  -1.255789e-03  0 
 -1.760039e-04  -2.448190e-04  0 
 -2.642157e-04  -3.875686e-04  0 
 -3.177982e-04  -5.089458e-04  0 
 -3.559319e-04  -6.094760e-04  0 
 -3.973854e-04  -7.149171e-04  0 
 3.971629e-05  -8.528798e-05  0 
 3.418258e-05  -2.053050e-04  0 
 -2.280891e-05  -3.641029e-04  0 
 -1.416512e-04  -5.502217e-04  0 
 -3.501512e-04  -7.571496e-04  0 
 0  0  0 
 0  0  0 
 0  0  0 
 0  0  0 
 0  0  0 
 -3.126108e-04  -7.911404e-04  0 
 -2.303456e-04  -7.389229e-04  0 
 -1.838081e-04  -7.024881e-04  0 
 -1.800232e-04  -7.164980e-04  0 
 -2.845985e-04  -8.085984e-04  0 
 -1.593837e-04  -4.435750e-04  0 
 -1.914840e-04  -6.192574e-04  0 
 -1.105919e-04  -2.865085e-04  0 
 -2.130654e-04  -5.604250e-04  0 
 -1.276874e-04  -3.078357e-04  0 
 -2.292473e-05  -1.340676e-04  0 
 -3.346115e-04  -8.060687e-04  0 
 -1.047998e-04  -3.150289e-04  0 
 -1.814462e-04  -5.086500e-04  0 
 -1.951722e-04  -4.556904e-04  0 
 -1.765197e-04  -5.891151e-04  0 
 -1.037674e-04  -2.771101e-04  0 
 -5.186720e-05  -1.301322e-04  0 
 -1.704967e-04  -5.098307e-04  0 
 -5.853633e-05  -1.446321e-04  0 
 -1.888283e-04  -6.535924e-04  0 
 -1.836415e-04  -6.879627e-04  0 
 -1.468960e-04  -4.069304e-04  0 
 -2.613295e-04  -8.160305e-04  0 
 -2.978570e-04  -6.346355e-04  0 
 -1.387483e-04  -2.574916e-04  0 
 -2.334719e-05  -6.832526e-05  0 
 -7.296036e-05  -1.976998e-04  0 
 -2.412999e-04  -7.042087e-04  0 
 -2.174374e-04  -4.155204e-04  0 
 -2.646706e-04  -5.331790e-04  0 
 -2.556045e-04  -6.874969e-04  0 
 -1.998775e-04  -5.627877e-04  0 
 -5.290581e-05  -1.181668e-04  0 
 -2.544159e-06  -3.982257e-05  0 
 -4.620964e-04  -9.957235e-04  0 
 -5.767722e-05  -1.023509e-04  0 
 -3.332936e-04  -7.309233e-04  0 
VECTORS displacement_ITER3 FLOAT
 0  0  0 
 -4.098833e-04  -7.939258e-04  0 
 -1.058669e-20  -1.439102e-20  0 
 -8.809639e-04  -1.079195e-03  0 
 -1.649853e-04  -2.313941e-04  0 
 -2.460293e-04  -3.650075e-04  0 
 -2.943351e-04  -4.769914e-04  0 
 -3.287633e-04  -5.683291e-04  0 
 -3.669779e-04  -6.634406e-04  0 
 3.000399e-05  -7.216072e-05  0 
 1.340754e-05  -1.791404e-04  0 
 -5.558315e-05  -3.234486e-04  0 
 -1.875153e-04  -4.895969e-04  0 
 -4.231038e-04  -6.579860e-04  0 
 0  0  0 
 0  0  0 
 0  0  0 
 0  0  0 
 0  0  0 
 -2.929071e-04  -7.302582e-04  0 
 -2.210773e-04  -6.765043e-04  0 
 -1.836622e-04  -6.380897e-04  0 
 -1.943914e-04  -6.311703e-04  0 
 -3.271542e-04  -6.868741e-04  0 
 -1.523910e-04  -4.187645e-04  0 
 -1.927090e-04  -5.778433e-04  0 
 -1.124348e-04  -2.741615e-04  0 
 -1.999274e-04  -5.227875e-04  0 
 -1.204095e-04  -2.928383e-04  0 
 -3.046445e-05  -1.235870e-04  0 
 -3.692027e-04  -7.431793e-04  0 
 -1.161891e-04  -2.964672e-04  0 
 -1.865654e-04  -4.808170e-04  0 
 -1.826135e-04  -4.287392e-04  0 
 -1.712532e-04  -5.474223e-04  0 
 -1.015306e-04  -2.659247e-04  0 
 -5.222725e-05  -1.267145e-04  0 
 -1.683424e-04  -4.796363e-04  0 
 -5.690316e-05  -1.402177e-04  0 
 -1.821589e-04  -6.022581e-04  0 
 -1.846403e-04  -6.292864e-04  0 
 -1.455726e-04  -3.867922e-04  0 
 -2.810277e-04  -7.387543e-04  0 
 -2.766895e-04  -5.901813e-04  0 
 -1.297887e-04  -2.444473e-04  0 
 -2.549786e-05  -6.538312e-05  0 
 -7.749705e-05  -1.891883e-04  0 
 -2.533291e-04  -6.556415e-04  0 
 -2.024169e-04  -3.916175e-04  0 
 -2.458009e-04  -4.991093e-04  0 
 -2.398314e-04  -6.356750e-04  0 
 -2.227004e-04  -5.230292e-04  0 
 -5.004880e-05  -1.137337e-04  0 
 -5.381009e-06  -3.573214e-05  0 
 -5.125320e-04  -9.027124e-04  0 
 -5.413597e-05  -9.764716e-05  0 
 -3.100558e-04  -6.768784e-04  0 
VECTORS displacement_ITER4 FLOAT
 0  0  0 
 -3.899024e-04  -7.569489e-04  0 
 -1.664335e-20  -1.930907e-20  0 
 -9.336022e-04  -1.005919e-03  0 
 -1.597595e-04  -2.253840e-04  0 
 -2.369552e-04  -3.548675e-04  0 
 -2.818409e-04  -4.621360e-04  0 
 -3.131626e-04  -5.479945e-04  0 
 -3.486961e-04  -6.365046e-04  0 
 2.301540e-05  -7.267982e-05  0 
 8.668791e-07  -1.717706e-04  0 
 -7.285759e-05  -3.028995e-04  0 
 -2.068350e-04  -4.607093e-04  0 
 -4.482047e-04  -6.169860e-04  0 
 0  0  0 
 0  0  0 
 0  0  0 
 0  0  0 
 0  0  0 
 -2.779457e-04  -6.998366e-04  0 
 -2.126373e-04  -6.479431e-04  0 
 -1.833123e-04  -6.109541e-04  0 
 -2.033306e-04  -6.030038e-04  0 
 -3.405547e-04  -6.383675e-04  0 
 -1.490862e-04  -4.090080e-04  0 
 -1.934538e-04  -5.603935e-04  0 
 -1.121678e-04  -2.694142e-04  0 
 -1.928593e-04  -5.067480e-04  0 
 -1.168788e-04  -2.869373e-04  0 
 -3.416303e-05  -1.227615e-04  0 
 -3.825122e-04  -7.145331e-04  0 
 -1.197082e-04  -2.890133e-04  0 
 -1.874919e-04  -4.683859e-04  0 
 -1.761734e-04  -4.173809e-04  0 
 -1.689213e-04  -5.312166e-04  0 
 -1.000321e-04  -2.614185e-04  0 
 -5.194776e-05  -1.256566e-04  0 
 -1.669217e-04  -4.675057e-04  0 
 -5.590813e-05  -1.385265e-04  0 
 -1.779076e-04  -5.810405e-04  0 
 -1.874794e-04  -6.063049e-04  0 
 -1.441552e-04  -3.785584e-04  0 
 -2.880478e-04  -7.068404e-04  0 
 -2.642718e-04  -5.684047e-04  0 
 -1.253767e-04  -2.390111e-04  0 
 -2.646795e-05  -6.589825e-05  0 
 -7.854082e-05  -1.867872e-04  0 
 -2.580111e-04  -6.331075e-04  0 
 -1.947277e-04  -3.813030e-04  0 
 -2.356128e-04  -4.837330e-04  0 
 -2.291931e-04  -6.112017e-04  0 
 -2.320442e-04  -5.027807e-04  0 
 -4.863844e-05  -1.120217e-04  0 
 -7.633462e-06  -3.722585e-05  0 
 -5.306877e-04  -8.667517e-04  0 
 -5.241771e-05  -9.567569e-05  0 
 -2.955038e-04  -6.485625e-04  0 
VECTORS displacement_ITER5 FLOAT
 0  0  0 
 -3.779621e-04  -7.367134e-04  0 
 -1.858340e-20  -2.067852e-20  0 
 -9.550609e-04  -9.648381e-04  0 
 -1.561567e-04  -2.211767e-04  0 
 -2.308049e-04  -3.476437e-04  0 
 -2.737728e-04  -4.517944e-04  0 
 -3.038017e-04  -5.347659e-04  0 
 -3.383195e-04  -6.203893e-04  0 
 2.002937e-05  -6.918304e-05  0 
 -5.802839e-06  -1.666253e-04  0 
 -8.197053e-05  -2.941978e-04  0 
 -2.192648e-04  -4.471405e-04  0 
 -4.633123e-04  -5.952434e-04  0 
 0  0  0 
 0  0  0 
 0  0  0 
 0  0  0 
 0  0  0 
 -2.714879e-04  -6.802950e-04  0 
 -2.087053e-04  -6.270235e-04  0 
 -1.795912e-04  -5.896167e-04  0 
 -2.068017e-04  -5.825655e-04  0 
 -3.482404e-04  -6.127734e-04  0 
 -1.468365e-04  -4.020234e-04  0 
 -1.935943e-04  -5.489980e-04  0 
 -1.126270e-04  -2.663144e-04  0 
 -1.877742e-04  -4.948504e-04  0 
 -1.144786e-04  -2.826892e-04  0 
 -3.679391e-05  -1.208737e-04  0 
 -3.894197e-04  -6.980908e-04  0 
 -1.228396e-04  -2.846926e-04  0 
 -1.886451e-04  -4.608709e-04  0 
 -1.716574e-04  -4.090867e-04  0 
 -1.671328e-04  -5.193004e-04  0 
 -9.930687e-05  -2.584635e-04  0 
 -5.204846e-05  -1.249637e-04  0 
 -1.661608e-04  -4.591453e-04  0 
 -5.538942e-05  -1.374637e-04  0 
 -1.742745e-04  -5.642794e-04  0 
 -1.877068e-04  -5.909256e-04  0 
 -1.436519e-04  -3.730633e-04  0 
 -2.922716e-04  -6.874306e-04  0 
 -2.565966e-04  -5.542694e-04  0 
 -1.223914e-04  -2.350921e-04  0 
 -2.725175e-05  -6.554346e-05  0 
 -7.987021e-05  -1.849499e-04  0 
 -2.604646e-04  -6.200571e-04  0 
 -1.895139e-04  -3.737818e-04  0 
 -2.288814e-04  -4.728389e-04  0 
 -2.232624e-04  -5.944252e-04  0 
 -2.374075e-04  -4.930943e-04  0 
 -4.771673e-05  -1.108305e-04  0 
 -8.568163e-06  -3.636175e-05  0 
 -5.390496e-04  -8.440114e-04  0 
 -5.125497e-05  -9.429085e-05  0 
 -2.872891e-04  -6.317745e-04  0 
VECTORS displacement_ITER6 FLOAT
 0  0  0 
 -3.747432e-04  -7.306512e-04  0 
 -1.854171e-20  -2.032838e-20  0 
 -9.607939e-04  -9.439589e-04  0 
 -1.548000e-04  -2.194707e-04  0 
 -2.286246e-04  -3.447221e-04  0 
 -2.711687e-04  -4.478003e-04  0 
 -3.011365e-04  -5.300904e-04  0 
 -3.356036e-04  -6.151844e-04  0 
 1.857443e-05  -6.494861e-05  0 
 -8.335702e-06  -1.624669e-04  0 
 -8.478537e-05  -2.911237e-04  0 
 -2.240251e-04  -4.425812e-04  0 
 -4.695677e-04  -5.870438e-04  0 
 0  0  0 
 0  0  0 
 0  0  0 
 0  0  0 
 0  0  0 
 -2.700674e-04  -6.742380e-04  0 
 -2.080492e-04  -6.197763e-04  0 
 -1.776330e-04  -5.808109e-04  0 
 -2.075547e-04  -5.733706e-04  0 
 -3.530346e-04  -6.039828e-04  0 
 -1.459998e-04  -3.988919e-04  0 
 -1.936955e-04  -5.442635e-04  0 
 -1.130289e-04  -2.645419e-04  0 
 -1.859307e-04  -4.899458e-04  0 
 -1.136095e-04  -2.807191e-04  0 
 -3.803662e-05  -1.184138e-04  0 
 -3.916146e-04  -6.914899e-04  0 
 -1.245704e-04  -2.819410e-04  0 
 -1.895053e-04  -4.575059e-04  0 
 -1.700499e-04  -4.055402e-04  0 
 -1.663990e-04  -5.142061e-04  0 
 -9.909755e-05  -2.570033e-04  0 
 -5.212241e-05  -1.244013e-04  0 
 -1.659828e-04  -4.554537e-04  0 
 -5.522092e-05  -1.368549e-04  0 
 -1.727865e-04  -5.574217e-04  0 
 -1.873935e-04  -5.846493e-04  0 
 -1.436327e-04  -3.705221e-04  0 
 -2.945514e-04  -6.800068e-04  0 
 -2.543978e-04  -5.492762e-04  0 
 -1.213226e-04  -2.333713e-04  0 
 -2.752637e-05  -6.478716e-05  0 
 -8.060312e-05  -1.834004e-04  0 
 -2.615833e-04  -6.150435e-04  0 
 -1.877128e-04  -3.706070e-04  0 
 -2.267056e-04  -4.685129e-04  0 
 -2.216518e-04  -5.885783e-04  0 
 -2.393930e-04  -4.895478e-04  0 
 -4.738416e-05  -1.102270e-04  0 
 -8.778399e-06  -3.495481e-05  0 
 -5.413948e-04  -8.332935e-04  0 
 -5.082858e-05  -9.367548e-05  0 
 -2.851659e-04  -6.264040e-04  0 
VECTORS displacement_ITER7 FLOAT
 0  0  0 
 -3.735453e-04  -7.262763e-04  0 
 -1.771555e-20  -1.930360e-20  0 
 -9.615311e-04  -9.312366e-04  0 
 -1.541406e-04  -2.185311e-04  0 
 -2.276721e-04  -3.432287e-04  0 
 -2.700707e-04  -4.458175e-04  0 
 -2.999484e-04  -5.276393e-04  0 
 -3.342039e-04  -6.118708e-04  0 
 1.688223e-05  -6.365251e-05  0 
 -1.009704e-05  -1.601062e-04  0 
 -8.648238e-05  -2.883964e-04  0 
 -2.259074e-04  -4.382975e-04  0 
 -4.724326e-04  -5.812385e-04  0 
 0  0  0 
 0  0  0 
 0  0  0 
 0  0  0 
 0  0  0 
 -2.686105e-04  -6.707501e-04  0 
 -2.079519e-04  -6.172417e-04  0 
 -1.786257e-04  -5.768275e-04  0 
 -2.077949e-04  -5.678737e-04  0 
 -3.555064e-04  -5.973029e-04  0 
 -1.455308e-04  -3.968282e-04  0 
 -1.936322e-04  -5.409078e-04  0 
 -1.129351e-04  -2.631585e-04  0 
 -1.854297e-04  -4.874871e-04  0 
 -1.131829e-04  -2.794046e-04  0 
 -3.865658e-05  -1.171550e-04  0 
 -3.922926e-04  -6.864475e-04  0 
 -1.251405e-04  -2.798486e-04  0 
 -1.895813e-04  -4.547971e-04  0 
 -1.694776e-04  -4.035977e-04  0 
 -1.660018e-04  -5.112312e-04  0 
 -9.882325e-05  -2.558089e-04  0 
 -5.202175e-05  -1.238877e-04  0 
 -1.656716e-04  -4.529287e-04  0 
 -5.505112e-05  -1.362730e-04  0 
 -1.726109e-04  -5.545170e-04  0 
 -1.874847e-04  -5.802640e-04  0 
 -1.433481e-04  -3.686151e-04  0 
 -2.953204e-04  -6.747105e-04  0 
 -2.536423e-04  -5.465994e-04  0 
 -1.208283e-04  -2.323416e-04  0 
 -2.759039e-05  -6.447970e-05  0 
 -8.072497e-05  -1.823174e-04  0 
 -2.619279e-04  -6.109981e-04  0 
 -1.869925e-04  -3.689398e-04  0 
 -2.259197e-04  -4.663319e-04  0 
 -2.211294e-04  -5.858448e-04  0 
 -2.400594e-04  -4.860962e-04  0 
 -4.720128e-05  -1.097557e-04  0 
 -9.114747e-06  -3.476040e-05  0 
 -5.420649e-04  -8.253858e-04  0 
 -5.061944e-05  -9.327665e-05  0 
 -2.841128e-04  -6.228485e-04  0 
VECTORS displacement_ITER8 FLOAT
 0  0  0 
 -3.722442e-04  -7.220745e-04  0 
 -1.652165e-20  -1.802468e-20  0 
 -9.613133e-04  -9.221759e-04  0 
 -1.534539e-04  -2.175622e-04  0 
 -2.266685e-04  -3.416943e-04  0 
 -2.688790e-04  -4.437506e-04  0 
 -2.986274e-04  -5.250224e-04  0 
 -3.327337e-04  -6.084605e-04  0 
 1.584247e-05  -6.373584e-05  0 
 -1.125172e-05  -1.589925e-04  0 
 -8.815031e-05  -2.857867e-04  0 
 -2.273230e-04  -4.342808e-04  0 
 -4.741965e-04  -5.756919e-04  0 
 0  0  0 
 0  0  0 
 0  0  0 
 0  0  0 
 0  0  0 
 -2.675149e-04  -6.666839e-04  0 
 -2.075668e-04  -6.140677e-04  0 
 -1.793845e-04  -5.731427e-04  0 
 -2.078200e-04  -5.631329e-04  0 
 -3.562239e-04  -5.901333e-04  0 
 -1.450099e-04  -3.947385e-04  0 
 -1.932422e-04  -5.375615e-04  0 
 -1.126515e-04  -2.619523e-04  0 
 -1.849312e-04  -4.849621e-04  0 
 -1.127292e-04  -2.780689e-04  0 
 -3.893772e-05  -1.167179e-04  0 
 -3.925096e-04  -6.816148e-04  0 
 -1.252260e-04  -2.784443e-04  0 
 -1.891762e-04  -4.522487e-04  0 
 -1.688797e-04  -4.016265e-04  0 
 -1.655289e-04  -5.082573e-04  0 
 -9.848084e-05  -2.546053e-04  0 
 -5.189200e-05  -1.234290e-04  0 
 -1.651618e-04  -4.504154e-04  0 
 -5.485433e-05  -1.356855e-04  0 
 -1.724261e-04  -5.515163e-04  0 
 -1.873664e-04  -5.760031e-04  0 
 -1.428830e-04  -3.667184e-04  0 
 -2.951006e-04  -6.693349e-04  0 
 -2.527455e-04  -5.437270e-04  0 
 -1.203076e-04  -2.312904e-04  0 
 -2.762265e-05  -6.436971e-05  0 
 -8.066591e-05  -1.815975e-04  0 
 -2.616869e-04  -6.068787e-04  0 
 -1.862280e-04  -3.672416e-04  0 
 -2.250542e-04  -4.640714e-04  0 
 -2.205739e-04  -5.826690e-04  0 
 -2.403745e-04  -4.827315e-04  0 
 -4.700706e-05  -1.092751e-04  0 
 -9.387984e-06  -3.494808e-05  0 
 -5.422946e-04  -8.183828e-04  0 
 -5.040002e-05  -9.286782e-05  0 
 -2.830074e-04  -6.191778e-04  0 
VECTORS displacement_ITER9 FLOAT
 0  0  0 
 -3.732545e-04  -7.241170e-04  0 
 -1.497664e-20  -1.643293e-20  0 
 -9.576022e-04  -9.228947e-04  0 
 -1.535790e-04  -2.176440e-04  0 
 -2.269474e-04  -3.418723e-04  0 
 -2.693358e-04  -4.441038e-04  0 
 -2.992902e-04  -5.256420e-04  0 
 -3.337348e-04  -6.097768e-04  0 
 1.670316e-05  -6.408594e-05  0 
 -1.012259e-05  -1.598119e-04  0 
 -8.730917e-05  -2.866950e-04  0 
 -2.261369e-04  -4.359548e-04  0 
 -4.721148e-04  -5.770603e-04  0 
 0  0  0 
 0  0  0 
 0  0  0 
 0  0  0 
 0  0  0 
 -2.684875e-04  -6.682762e-04  0 
 -2.069540e-04  -6.152025e-04  0 
 -1.790585e-04  -5.744741e-04  0 
 -2.073536e-04  -5.646574e-04  0 
 -3.545887e-04  -5.913348e-04  0 
 -1.449222e-04  -3.949083e-04  0 
 -1.926836e-04  -5.380839e-04  0 
 -1.123786e-04  -2.621092e-04  0 
 -1.850357e-04  -4.854268e-04  0 
 -1.127732e-04  -2.780752e-04  0 
 -3.847066e-05  -1.170249e-04  0 
 -3.908892e-04  -6.822786e-04  0 
 -1.246356e-04  -2.790872e-04  0 
 -1.885238e-04  -4.526571e-04  0 
 -1.690213e-04  -4.018357e-04  0 
 -1.652066e-04  -5.089204e-04  0 
 -9.836122e-05  -2.545982e-04  0 
 -5.181811e-05  -1.234076e-04  0 
 -1.647740e-04  -4.507811e-04  0 
 -5.481646e-05  -1.356234e-04  0 
 -1.721301e-04  -5.525048e-04  0 
 -1.869136e-04  -5.769454e-04  0 
 -1.425818e-04  -3.668733e-04  0 
 -2.938988e-04  -6.700503e-04  0 
 -2.531441e-04  -5.444066e-04  0 
 -1.204228e-04  -2.313143e-04  0 
 -2.750319e-05  -6.435379e-05  0 
 -8.041279e-05  -1.817914e-04  0 
 -2.607001e-04  -6.073467e-04  0 
 -1.864593e-04  -3.674005e-04  0 
 -2.253832e-04  -4.644371e-04  0 
 -2.207115e-04  -5.834180e-04  0 
 -2.394394e-04  -4.834893e-04  0 
 -4.702729e-05  -1.092313e-04  0 
 -9.150515e-06  -3.491174e-05  0 
 -5.401293e-04  -8.189040e-04  0 
 -5.044001e-05  -9.286263e-05  0 
 -2.837610e-04  -6.206105e-04  0 
VECTORS displacement_ITER10 FLOAT
 0  0  0 
 -3.736811e-04  -7.257440e-04  0 
 -1.370424e-20  -1.511335e-20  0 
 -9.563860e-04  -9.251748e-04  0 
 -1.536654e-04  -2.177582e-04  0 
 -2.270817e-04  -3.420617e-04  0 
 -2.695142e-04  -4.443907e-04  0 
 -2.995313e-04  -5.260756e-04  0 
 -3.341242e-04  -6.106071e-04  0 
 1.728539e-05  -6.437167e-05  0 
 -9.605467e-06  -1.605026e-04  0 
 -8.668979e-05  -2.875991e-04  0 
 -2.256732e-04  -4.370093e-04  0 
 -4.712117e-04  -5.782212e-04  0 
 0  0  0 
 0  0  0 
 0  0  0 
 0  0  0 
 0  0  0 
 -2.688208e-04  -6.691791e-04  0 
 -2.067603e-04  -6.156077e-04  0 
 -1.787853e-04  -5.750326e-04  0 
 -2.069968e-04  -5.657855e-04  0 
 -3.537435e-04  -5.927510e-04  0 
 -1.448933e-04  -3.952605e-04  0 
 -1.925213e-04  -5.386830e-04  0 
 -1.123141e-04  -2.623925e-04  0 
 -1.849901e-04  -4.858645e-04  0 
 -1.127970e-04  -2.782583e-04  0 
 -3.828157e-05  -1.173771e-04  0 
 -3.903456e-04  -6.831823e-04  0 
 -1.244067e-04  -2.796029e-04  0 
 -1.883437e-04  -4.531872e-04  0 
 -1.690422e-04  -4.021309e-04  0 
 -1.651114e-04  -5.094715e-04  0 
 -9.834413e-05  -2.547999e-04  0 
 -5.180925e-05  -1.235053e-04  0 
 -1.646808e-04  -4.512447e-04  0 
 -5.481957e-05  -1.357095e-04  0 
 -1.719811e-04  -5.530492e-04  0 
 -1.867452e-04  -5.777008e-04  0 
 -1.425177e-04  -3.672204e-04  0 
 -2.934109e-04  -6.710292e-04  0 
 -2.531872e-04  -5.449250e-04  0 
 -1.204821e-04  -2.314387e-04  0 
 -2.747602e-05  -6.442190e-05  0 
 -8.033223e-05  -1.820482e-04  0 
 -2.603461e-04  -6.080822e-04  0 
 -1.865399e-04  -3.676216e-04  0 
 -2.254592e-04  -4.647733e-04  0 
 -2.206546e-04  -5.839580e-04  0 
 -2.390305e-04  -4.843484e-04  0 
 -4.704431e-05  -1.092873e-04  0 
 -9.027643e-06  -3.491397e-05  0 
 -5.394477e-04  -8.201977e-04  0 
 -5.046556e-05  -9.290822e-05  0 
 -2.839195e-04  -6.215470e-04  0 
VECTORS displacement_ITER11 FLOAT
 0  0  0 
 -3.744711e-04  -7.267675e-04  0 
 -1.255857e-20  -1.393487e-20  0 
 -9.560185e-04  -9.285382e-04  0 
 -1.538289e-04  -2.179588e-04  0 
 -2.273480e-04  -3.423887e-04  0 
 -2.698541e-04  -4.448318e-04  0 
 -2.999218e-04  -5.266021e-04  0 
 -3.345752e-04  -6.111817e-04  0 
 1.729485e-05  -6.460654e-05  0 
 -9.488589e-06  -1.605820e-04  0 
 -8.610520e-05  -2.877774e-04  0 
 -2.249869e-04  -4.372404e-04  0 
 -4.703999e-04  -5.794060e-04  0 
 0  0  0 
 0  0  0 
 0  0  0 
 0  0  0 
 0  0  0 
 -2.688259e-04  -6.699469e-04  0 
 -2.070779e-04  -6.164594e-04  0 
 -1.788620e-04  -5.759860e-04  0 
 -2.068757e-04  -5.669327e-04  0 
 -3.532014e-04  -5.942768e-04  0 
 -1.450408e-04  -3.956058e-04  0 
 -1.926176e-04  -5.392507e-04  0 
 -1.123047e-04  -2.624760e-04  0 
 -1.852095e-04  -4.863920e-04  0 
 -1.129281e-04  -2.784677e-04  0 
 -3.819198e-05  -1.174392e-04  0 
 -3.902409e-04  -6.840999e-04  0 
 -1.242588e-04  -2.795794e-04  0 
 -1.883821e-04  -4.534868e-04  0 
 -1.692530e-04  -4.025026e-04  0 
 -1.652846e-04  -5.100171e-04  0 
 -9.840240e-05  -2.549313e-04  0 
 -5.179727e-05  -1.235088e-04  0 
 -1.648042e-04  -4.516315e-04  0 
 -5.485333e-05  -1.357544e-04  0 
 -1.721938e-04  -5.537425e-04  0 
 -1.868071e-04  -5.785150e-04  0 
 -1.425981e-04  -3.674698e-04  0 
 -2.932819e-04  -6.721588e-04  0 
 -2.535020e-04  -5.454839e-04  0 
 -1.206214e-04  -2.316310e-04  0 
 -2.743849e-05  -6.444076e-05  0 
 -8.024970e-05  -1.820568e-04  0 
 -2.603417e-04  -6.087973e-04  0 
 -1.867734e-04  -3.679585e-04  0 
 -2.257523e-04  -4.652318e-04  0 
 -2.208652e-04  -5.847163e-04  0 
 -2.387990e-04  -4.846969e-04  0 
 -4.709191e-05  -1.093493e-04  0 
 -9.023401e-06  -3.500210e-05  0 
 -5.393435e-04  -8.219807e-04  0 
 -5.051984e-05  -9.297863e-05  0 
 -2.841756e-04  -6.221129e-04  0 
VECTORS displacement_ITER12 FLOAT
 0  0  0 
 -3.748730e-04  -7.276704e-04  0 
 -1.184010e-20  -1.314502e-20  0 
 -9.551234e-04  -9.310866e-04  0 
 -1.539903e-04  -2.181619e-04  0 
 -2.276072e-04  -3.427361e-04  0 
 -2.701759e-04  -4.453335e-04  0 
 -3.002684e-04  -5.272530e-04  0 
 -3.349021e-04  -6.119197e-04  0 
 1.753706e-05  -6.488609e-05  0 
 -9.038330e-06  -1.609746e-04  0 
 -8.538708e-05  -2.884220e-04  0 
 -2.240502e-04  -4.381365e-04  0 
 -4.694256e-04  -5.808704e-04  0 
 0  0  0 
 0  0  0 
 0  0  0 
 0  0  0 
 0  0  0 
 -2.688336e-04  -6.709349e-04  0 
 -2.072436e-04  -6.175666e-04  0 
 -1.786737e-04  -5.771715e-04  0 
 -2.065787e-04  -5.680851e-04  0 
 -3.526408e-04  -5.961530e-04  0 
 -1.451062e-04  -3.960441e-04  0 
 -1.925339e-04  -5.400241e-04  0 
 -1.122569e-04  -2.626977e-04  0 
 -1.853416e-04  -4.870310e-04  0 
 -1.130168e-04  -2.787234e-04  0 
 -3.800507e-05  -1.176071e-04  0 
 -3.897905e-04  -6.852855e-04  0 
 -1.240213e-04  -2.798738e-04  0 
 -1.882864e-04  -4.540208e-04  0 
 -1.694019e-04  -4.029528e-04  0 
 -1.653041e-04  -5.107181e-04  0 
 -9.842249e-05  -2.551414e-04  0 
 -5.177987e-05  -1.235673e-04  0 
 -1.648067e-04  -4.521725e-04  0 
 -5.487152e-05  -1.358377e-04  0 
 -1.722346e-04  -5.546019e-04  0 
 -1.866246e-04  -5.795503e-04  0 
 -1.426012e-04  -3.678461e-04  0 
 -2.930304e-04  -6.734904e-04  0 
 -2.537571e-04  -5.462150e-04  0 
 -1.207445e-04  -2.318389e-04  0 
 -2.738261e-05  -6.447792e-05  0 
 -8.014357e-05  -1.821951e-04  0 
 -2.601532e-04  -6.097652e-04  0 
 -1.869726e-04  -3.683429e-04  0 
 -2.259922e-04  -4.657887e-04  0 
 -2.210129e-04  -5.856453e-04  0 
 -2.383913e-04  -4.853972e-04  0 
 -4.712878e-05  -1.094248e-04  0 
 -8.954896e-06  -3.507038e-05  0 
 -5.388135e-04  -8.236875e-04  0 
 -5.056958e-05  -9.305242e-05  0 
 -2.843799e-04  -6.229006e-04  0 
VECTORS displacement_ITER13 FLOAT
 0  0  0 
 -3.754885e-04  -7.288629e-04  0 
 -1.109102e-20  -1.233350e-20  0 
 -9.540477e-04  -9.336933e-04  0 
 -1.542004e-04  -2.184140e-04  0 
 -2.279582e-04  -3.431600e-04  0 
 -2.706374e-04  -4.459421e-04  0 
 -3.008113e-04  -5.280558e-04  0 
 -3.354980e-04  -6.129269e-04  0 
 1.777487e-05  -6.497704e-05  0 
 -8.578328e-06  -1.612450e-04  0 
 -8.485574e-05  -2.889107e-04  0 
 -2.231910e-04  -4.391367e-04  0 
 -4.683748e-04  -5.824092e-04  0 
 0  0  0 
 0  0  0 
 0  0  0 
 0  0  0 
 0  0  0 
 -2.692357e-04  -6.721779e-04  0 
 -2.075076e-04  -6.187486e-04  0 
 -1.786094e-04  -5.784265e-04  0 
 -2.063173e-04  -5.695593e-04  0 
 -3.520978e-04  -5.981425e-04  0 
 -1.452452e-04  -3.964975e-04  0 
 -1.925292e-04  -5.407956e-04  0 
 -1.122437e-04  -2.628941e-04  0 
 -1.855945e-04  -4.877319e-04  0 
 -1.131576e-04  -2.789970e-04  0 
 -3.783277e-05  -1.176750e-04  0 
 -3.893212e-04  -6.864822e-04  0 
 -1.238297e-04  -2.801507e-04  0 
 -1.882305e-04  -4.545271e-04  0 
 -1.696442e-04  -4.034520e-04  0 
 -1.654202e-04  -5.114664e-04  0 
 -9.847519e-05  -2.553398e-04  0 
 -5.177792e-05  -1.236099e-04  0 
 -1.648726e-04  -4.527180e-04  0 
 -5.490591e-05  -1.359134e-04  0 
 -1.723840e-04  -5.555299e-04  0 
 -1.865768e-04  -5.806393e-04  0 
 -1.426507e-04  -3.682075e-04  0 
 -2.927661e-04  -6.749325e-04  0 
 -2.541905e-04  -5.470831e-04  0 
 -1.209170e-04  -2.320799e-04  0 
 -2.733147e-05  -6.447428e-05  0 
 -8.006874e-05  -1.822943e-04  0 
 -2.600221e-04  -6.106797e-04  0 
 -1.872640e-04  -3.687877e-04  0 
 -2.263647e-04  -4.664346e-04  0 
 -2.213410e-04  -5.866598e-04  0 
 -2.380759e-04  -4.860245e-04  0 
 -4.718383e-05  -1.095043e-04  0 
 -8.873883e-06  -3.506516e-05  0 
 -5.382347e-04  -8.254330e-04  0 
 -5.063744e-05  -9.313912e-05  0 
 -2.848645e-04  -6.239642e-04  0 
VECTORS displacement_ITER14 FLOAT
 0  0  0 
 -3.753416e-04  -7.290935e-04  0 
 -1.029682e-20  -1.145978e-20  0 
 -9.529758e-04  -9.360888e-04  0 
 -1.542937e-04  -2.185560e-04  0 
 -2.280818e-04  -3.433973e-04  0 
 -2.707469e-04  -4.462526e-04  0 
 -3.008678e-04  -5.284011e-04  0 
 -3.354887e-04  -6.132929e-04  0 
 1.788831e-05  -6.523952e-05  0 
 -8.322978e-06  -1.617220e-04  0 
 -8.454694e-05  -2.894715e-04  0 
 -2.226629e-04  -4.399348e-04  0 
 -4.675754e-04  -5.835789e-04  0 
 0  0  0 
 0  0  0 
 0  0  0 
 0  0  0 
 0  0  0 
 -2.692472e-04  -6.725888e-04  0 
 -2.073859e-04  -6.192380e-04  0 
 -1.785886e-04  -5.791293e-04  0 
 -2.061370e-04  -5.706030e-04  0 
 -3.515545e-04  -5.995374e-04  0 
 -1.452951e-04  -3.968405e-04  0 
 -1.925135e-04  -5.413356e-04  0 
 -1.122274e-04  -2.631169e-04  0 
 -1.856554e-04  -4.881611e-04  0 
 -1.132045e-04  -2.792187e-04  0 
 -3.775377e-05  -1.178928e-04  0 
 -3.889830e-04  -6.873370e-04  0 
 -1.237046e-04  -2.804924e-04  0 
 -1.881708e-04  -4.549371e-04  0 
 -1.697098e-04  -4.037873e-04  0 
 -1.654484e-04  -5.119844e-04  0 
 -9.849369e-05  -2.555316e-04  0 
 -5.177781e-05  -1.236971e-04  0 
 -1.648857e-04  -4.531347e-04  0 
 -5.491854e-05  -1.360076e-04  0 
 -1.723935e-04  -5.561021e-04  0 
 -1.865695e-04  -5.813391e-04  0 
 -1.426590e-04  -3.685118e-04  0 
 -2.925198e-04  -6.759020e-04  0 
 -2.542189e-04  -5.474738e-04  0 
 -1.209780e-04  -2.322483e-04  0 
 -2.731460e-05  -6.455309e-05  0 
 -8.002613e-05  -1.824739e-04  0 
 -2.599025e-04  -6.113111e-04  0 
 -1.873465e-04  -3.690712e-04  0 
 -2.264346e-04  -4.667990e-04  0 
 -2.213359e-04  -5.870801e-04  0 
 -2.378532e-04  -4.865585e-04  0 
 -4.720396e-05  -1.095813e-04  0 
 -8.850663e-06  -3.516264e-05  0 
 -5.377870e-04  -8.267239e-04  0 
 -5.066441e-05  -9.320150e-05  0 
 -2.848736e-04  -6.243727e-04  0 
VECTORS displacement_ITER15 FLOAT
 0  0  0 
 -3.757442e-04  -7.300735e-04  0 
 -9.353623e-21  -1.045056e-20  0 
 -9.514350e-04  -9.388727e-04  0 
 -1.545010e-04  -2.188143e-04  0 
 -2.284179e-04  -3.438318e-04  0 
 -2.711672e-04  -4.468587e-04  0 
 -3.013309e-04  -5.291642e-04  0 
 -3.359615e-04  -6.142052e-04  0 
 1.807277e-05  -6.537115e-05  0 
 -7.914872e-06  -1.620734e-04  0 
 -8.395543e-05  -2.900978e-04  0 
 -2.219591e-04  -4.408908e-04  0 
 -4.665744e-04  -5.851011e-04  0 
 0  0  0 
 0  0  0 
 0  0  0 
 0  0  0 
 0  0  0 
 -2.696701e-04  -6.736146e-04  0 
 -2.075809e-04  -6.203280e-04  0 
 -1.786270e-04  -5.803791e-04  0 
 -2.059375e-04  -5.720970e-04  0 
 -3.511070e-04  -6.013706e-04  0 
 -1.454487e-04  -3.973004e-04  0 
 -1.925334e-04  -5.420908e-04  0 
 -1.122242e-04  -2.633265e-04  0 
 -1.859297e-04  -4.888598e-04  0 
 -1.133449e-04  -2.795120e-04  0 
 -3.761691e-05  -1.179970e-04  0 
 -3.885468e-04  -6.884376e-04  0 
 -1.235367e-04  -2.807813e-04  0 
 -1.881330e-04  -4.554447e-04  0 
 -1.699529e-04  -4.043047e-04  0 
 -1.655891e-04  -5.127306e-04  0 
 -9.855373e-05  -2.557420e-04  0 
 -5.178048e-05  -1.237527e-04  0 
 -1.649674e-04  -4.536802e-04  0 
 -5.495457e-05  -1.360958e-04  0 
 -1.725768e-04  -5.570311e-04  0 
 -1.865708e-04  -5.824041e-04  0 
 -1.427204e-04  -3.688799e-04  0 
 -2.922750e-04  -6.772580e-04  0 
 -2.546021e-04  -5.482960e-04  0 
 -1.211445e-04  -2.325048e-04  0 
 -2.727476e-05  -6.457309e-05  0 
 -7.996392e-05  -1.825926e-04  0 
 -2.597579e-04  -6.122082e-04  0 
 -1.876243e-04  -3.695360e-04  0 
 -2.267788e-04  -4.674492e-04  0 