# vtk DataFile Version 3.1
this is an vtk file created by FEMAC
ASCII
DATASET UNSTRUCTURED_GRID
POINTS 55 FLOAT
5.000000 0.000000 0.000000
6.000000 0.000000 0.000000
5.000000 1.000000 0.000000
6.000000 1.000000 0.000000
5.166667 0.000000 0.000000
5.333333 0.000000 0.000000
5.500000 0.000000 0.000000
5.666667 0.000000 0.000000
5.833333 0.000000 0.000000
5.000000 0.166667 0.000000
5.000000 0.333333 0.000000
5.000000 0.500000 0.000000
5.000000 0.666667 0.000000
5.000000 0.833333 0.000000
5.166667 1.000000 0.000000
5.333333 1.000000 0.000000
5.500000 1.000000 0.000000
5.666667 1.000000 0.000000
5.833333 1.000000 0.000000
6.000000 0.166667 0.000000
6.000000 0.333333 0.000000
6.000000 0.500000 0.000000
6.000000 0.666667 0.000000
6.000000 0.833333 0.000000
5.499028 0.357609 0.000000
5.666076 0.617149 0.000000
5.328744 0.608420 0.000000
5.236435 0.261987 0.000000
5.762188 0.265181 0.000000
5.770672 0.869358 0.000000
5.227817 0.867634 0.000000
5.863709 0.144877 0.000000
5.135859 0.143875 0.000000
5.393692 0.797424 0.000000
5.601780 0.799754 0.000000
5.497673 0.631909 0.000000
5.499636 0.210492 0.000000
5.728690 0.438608 0.000000
5.268597 0.432863 0.000000
5.844620 0.571692 0.000000
5.569780 0.473901 0.000000
5.153356 0.567544 0.000000
5.422752 0.470333 0.000000
5.678891 0.134180 0.000000
5.320660 0.133379 0.000000
5.374518 0.311111 0.000000
5.623035 0.313329 0.000000
5.879362 0.763647 0.000000
5.119542 0.761895 0.000000
5.252744 0.719527 0.000000
5.885601 0.345766 0.000000
5.113464 0.343753 0.000000
5.744214 0.724164 0.000000
5.896674 0.893268 0.000000
5.102805 0.892572 0.000000
CELLS 84 336 
3 31  8  1
3 19 31  1
3 4 32  0
3 32  9  0
3 34 16 33
3 26 35 33
3 25 40 37
3 40 25 35
3 42 26 38
3 26 42 35
3 28 43 31
3 44 27 32
3 27 45 38
3 46 28 37
3 47 22 23
3 22 47 39
3 12 48 13
3 48 12 41
3 49 26 33
3 30 49 33
3 26 49 41
3 50 28 31
3 27 51 32
3 25 52 34
3 52 29 34
3 52 25 39
3 34 35 25
3 34 33 35
3 40 42 24
3 40 35 42
3 36 46 24
3 45 36 24
3 46 40 24
3 37 40 46
3 42 45 24
3 42 38 45
3 52 47 29
3 39 47 52
3 48 49 30
3 48 41 49
3 17 16 34
3 29 17 34
3 29 18 17
3 21 50 20
3 28 50 37
3 51 11 10
3 27 38 51
3 6 44  5
3 6 36 44
3 45 27 44
3 44 36 45
3 43  6  7
3 36  6 43
3 28 46 43
3 36 43 46
3 39 21 22
3 39 50 21
3 39 25 37
3 37 50 39
3 11 41 12
3 41 11 51
3 41 38 26
3 51 38 41
3 16 15 33
3 15 30 33
3 14 30 15
3 4  5 44
3 32  4 44
3 10  9 51
3 9 32 51
3 7  8 43
3 8 31 43
3 19 20 50
3 31 19 50
3 18 53  3
3 23 53 47
3 53 23  3
3 13 54  2
3 54 14  2
3 54 13 48
3 29 53 18
3 29 47 53
3 54 30 14
3 48 30 54
CELL_TYPES 84
5 5 5 5 5 5 5 5 5 5 5 5 5 5 5 5 5 5 5 5 5 5 5 5 5 5 5 5 5 5 5 5 5 5 5 5 5 5 5 5 5 5 5 5 5 5 5 5 5 5 5 5 5 5 5 5 5 5 5 5 5 5 5 5 5 5 5 5 5 5 5 5 5 5 5 5 5 5 5 5 5 5 5 5 
POINT_DATA 55
VECTORS displacement_ITER1 FLOAT
 -1.523967e-02  -2.433297e-02  0 
 -1.588689e-02  -3.206896e-02  0 
 -8.759430e-03  -2.385632e-02  0 
 -9.938671e-03  -3.003971e-02  0 
 -1.563061e-02  -2.587110e-02  0 
 -1.578321e-02  -2.728533e-02  0 
 -1.585769e-02  -2.864405e-02  0 
 -1.586009e-02  -2.983062e-02  0 
 -1.585595e-02  -3.098877e-02  0 
 -1.429733e-02  -2.421159e-02  0 
 -1.309136e-02  -2.399047e-02  0 
 -1.225528e-02  -2.441274e-02  0 
 -1.126915e-02  -2.461419e-02  0 
 -9.831691e-03  -2.432836e-02  0 
 -9.522655e-03  -2.444716e-02  0 
 -9.700031e-03  -2.562862e-02  0 
 -9.599789e-03  -2.658808e-02  0 
 -9.499689e-03  -2.764626e-02  0 
 -9.472178e-03  -2.862986e-02  0 
 -1.485345e-02  -3.192387e-02  0 
 -1.386789e-02  -3.163721e-02  0 
 -1.293782e-02  -3.127456e-02  0 
 -1.198488e-02  -3.086093e-02  0 
 -1.096489e-02  -3.046546e-02  0 
 -1.324338e-02  -2.827872e-02  0 
 -1.185903e-02  -2.882699e-02  0 
 -1.150964e-02  -2.664269e-02  0 
 -1.371858e-02  -2.622041e-02  0 
 -1.409888e-02  -3.030556e-02  0 
 -1.043155e-02  -2.870014e-02  0 
 -1.010298e-02  -2.550433e-02  0 
 -1.491775e-02  -3.110795e-02  0 
 -1.452283e-02  -2.538469e-02  0 
 -1.055234e-02  -2.653753e-02  0 
 -1.071617e-02  -2.778062e-02  0 
 -1.154818e-02  -2.763981e-02  0 
 -1.427837e-02  -2.849537e-02  0 
 -1.298725e-02  -2.974542e-02  0 
 -1.252184e-02  -2.636804e-02  0 
 -1.235968e-02  -3.015339e-02  0 
 -1.257314e-02  -2.855303e-02  0 
 -1.173201e-02  -2.552883e-02  0 
 -1.240796e-02  -2.750795e-02  0 
 -1.492151e-02  -2.990239e-02  0 
 -1.475701e-02  -2.708445e-02  0 
 -1.345180e-02  -2.737030e-02  0 
 -1.366507e-02  -2.927206e-02  0 
 -1.127852e-02  -2.985549e-02  0 
 -1.054095e-02  -2.532602e-02  0 
 -1.082511e-02  -2.600933e-02  0 
 -1.369844e-02  -3.095638e-02  0 
 -1.305383e-02  -2.506867e-02  0 
 -1.134534e-02  -2.901578e-02  0 
 -1.046424e-02  -2.962086e-02  0 
 -9.659632e-03  -2.481316e-02  0 
VECTORS displacement_ITER2 FLOAT
 -1.160299e-02  -1.860921e-02  0 
 -1.207178e-02  -2.483688e-02  0 
 -6.404990e-03  -1.789034e-02  0 
 -7.089334e-03  -2.247144e-02  0 
 -1.186583e-02  -1.982475e-02  0 
 -1.197834e-02  -2.095525e-02  0 
 -1.203788e-02  -2.206632e-02  0 
 -1.204107e-02  -2.302701e-02  0 
 -1.204013e-02  -2.396685e-02  0 
 -1.069943e-02  -1.844619e-02  0 
 -9.700905e-03  -1.820354e-02  0 
 -9.026709e-03  -1.829780e-02  0 
 -8.204964e-03  -1.859876e-02  0 
 -6.968528e-03  -1.850785e-02  0 
 -6.832435e-03  -1.835485e-02  0 
 -7.005436e-03  -1.925525e-02  0 
 -6.925306e-03  -1.998194e-02  0 
 -6.860989e-03  -2.071502e-02  0 
 -6.866441e-03  -2.132578e-02  0 
 -1.124919e-02  -2.469409e-02  0 
 -1.046905e-02  -2.440398e-02  0 
 -9.730805e-03  -2.402200e-02  0 
 -8.981260e-03  -2.354774e-02  0 
 -8.168014e-03  -2.303047e-02  0 
 -9.880697e-03  -2.170462e-02  0 
 -8.745774e-03  -2.197647e-02  0 
 -8.384853e-03  -2.027102e-02  0 
 -1.028176e-02  -2.004716e-02  0 
 -1.061692e-02  -2.337502e-02  0 
 -7.580916e-03  -2.157878e-02  0 
 -7.295168e-03  -1.923753e-02  0 
 -1.128654e-02  -2.404800e-02  0 
 -1.093127e-02  -1.942891e-02  0 
 -7.634314e-03  -2.006002e-02  0 
 -7.779815e-03  -2.099477e-02  0 
 -8.448757e-03  -2.102645e-02  0 
 -1.074525e-02  -2.192206e-02  0 
 -9.701285e-03  -2.284777e-02  0 
 -9.257930e-03  -2.011306e-02  0 
 -9.218768e-03  -2.307590e-02  0 
 -9.324939e-03  -2.186646e-02  0 
 -8.557326e-03  -1.934817e-02  0 
 -9.163963e-03  -2.103276e-02  0 
 -1.127929e-02  -2.307935e-02  0 
 -1.113587e-02  -2.078752e-02  0 
 -1.005467e-02  -2.097871e-02  0 
 -1.024543e-02  -2.252754e-02  0 
 -8.345486e-03  -2.261988e-02  0 
 -7.562041e-03  -1.919741e-02  0 
 -7.807674e-03  -1.971365e-02  0 
 -1.031231e-02  -2.386517e-02  0 
 -9.715605e-03  -1.904685e-02  0 
 -8.342525e-03  -2.201271e-02  0 
 -7.654229e-03  -2.219560e-02  0 
 -6.957824e-03  -1.866348e-02  0 
VECTORS displacement_ITER3 FLOAT
 -1.014778e-02  -1.660642e-02  0 
 -1.062218e-02  -2.228308e-02  0 
 -5.548082e-03  -1.614367e-02  0 
 -6.154618e-03  -1.967985e-02  0 
 -1.040368e-02  -1.777452e-02  0 
 -1.051213e-02  -1.880405e-02  0 
 -1.057211e-02  -1.980914e-02  0 
 -1.058310e-02  -2.066615e-02  0 
 -1.058919e-02  -2.150644e-02  0 
 -9.366569e-03  -1.651381e-02  0 
 -8.657721e-03  -1.650694e-02  0 
 -7.769232e-03  -1.648305e-02  0 
 -7.001255e-03  -1.643068e-02  0 
 -6.338878e-03  -1.640767e-02  0 
 -5.887105e-03  -1.660729e-02  0 
 -5.946012e-03  -1.716270e-02  0 
 -5.900568e-03  -1.776892e-02  0 
 -5.895406e-03  -1.830768e-02  0 
 -5.987891e-03  -1.876008e-02  0 
 -9.891682e-03  -2.214443e-02  0 
 -9.199885e-03  -2.186227e-02  0 
 -8.537048e-03  -2.148450e-02  0 
 -7.876817e-03  -2.098497e-02  0 
 -7.173855e-03  -2.038144e-02  0 
 -8.649814e-03  -1.943552e-02  0 
 -7.612686e-03  -1.963652e-02  0 
 -7.310842e-03  -1.811075e-02  0 
 -8.997801e-03  -1.798032e-02  0 
 -9.317783e-03  -2.095418e-02  0 
 -6.557830e-03  -1.913076e-02  0 
 -6.247994e-03  -1.717437e-02  0 
 -9.918964e-03  -2.157025e-02  0 
 -9.548908e-03  -1.740879e-02  0 
 -6.570307e-03  -1.791780e-02  0 
 -6.704514e-03  -1.871510e-02  0 
 -7.344283e-03  -1.880174e-02  0 
 -9.414350e-03  -1.965302e-02  0 
 -8.490838e-03  -2.045200e-02  0 
 -8.128056e-03  -1.805965e-02  0 
 -8.056699e-03  -2.062131e-02  0 
 -8.152638e-03  -1.956983e-02  0 
 -7.432627e-03  -1.730349e-02  0 
 -8.027986e-03  -1.883013e-02  0 
 -9.904835e-03  -2.070413e-02  0 
 -9.747906e-03  -1.864649e-02  0 
 -8.797851e-03  -1.879946e-02  0 
 -8.977415e-03  -2.018169e-02  0 
 -7.273289e-03  -2.009794e-02  0 
 -6.582342e-03  -1.696017e-02  0 
 -6.790194e-03  -1.756353e-02  0 
 -9.052015e-03  -2.138226e-02  0 
 -8.573075e-03  -1.719799e-02  0 
 -7.240970e-03  -1.961660e-02  0 
 -6.660065e-03  -1.957325e-02  0 
 -6.099835e-03  -1.676225e-02  0 
VECTORS displacement_ITER4 FLOAT
 -9.263263e-03  -1.559694e-02  0 
 -9.743522e-03  -2.113715e-02  0 
 -4.905868e-03  -1.554350e-02  0 
 -5.348295e-03  -1.833352e-02  0 
 -9.514075e-03  -1.674219e-02  0 
 -9.623067e-03  -1.774040e-02  0 
 -9.686009e-03  -1.871511e-02  0 
 -9.701646e-03  -1.955184e-02  0 
 -9.711194e-03  -2.037332e-02  0 
 -8.510829e-03  -1.552946e-02  0 
 -7.814158e-03  -1.553409e-02  0 
 -7.032199e-03  -1.548816e-02  0 
 -6.380901e-03  -1.544371e-02  0 
 -5.683718e-03  -1.554652e-02  0 
 -5.093886e-03  -1.583752e-02  0 
 -5.171494e-03  -1.621666e-02  0 
 -5.168988e-03  -1.671723e-02  0 
 -5.190941e-03  -1.719854e-02  0 
 -5.274575e-03  -1.769797e-02  0 
 -9.026599e-03  -2.100037e-02  0 
 -8.349020e-03  -2.071660e-02  0 
 -7.702280e-03  -2.033064e-02  0 
 -7.071686e-03  -1.980917e-02  0 
 -6.381665e-03  -1.918266e-02  0 
 -7.816228e-03  -1.834630e-02  0 
 -6.788966e-03  -1.854375e-02  0 
 -6.535113e-03  -1.709824e-02  0 
 -8.155547e-03  -1.693460e-02  0 
 -8.462644e-03  -1.983195e-02  0 
 -5.791785e-03  -1.800502e-02  0 
 -5.466052e-03  -1.630551e-02  0 
 -9.053109e-03  -2.043666e-02  0 
 -8.683769e-03  -1.638648e-02  0 
 -5.777649e-03  -1.695454e-02  0 
 -5.917899e-03  -1.765558e-02  0 
 -6.534472e-03  -1.776813e-02  0 
 -8.563557e-03  -1.855398e-02  0 
 -7.647823e-03  -1.933991e-02  0 
 -7.337330e-03  -1.699480e-02  0 
 -7.226004e-03  -1.948665e-02  0 
 -7.320611e-03  -1.848787e-02  0 
 -6.712720e-03  -1.627553e-02  0 
 -7.216453e-03  -1.776599e-02  0 
 -9.040873e-03  -1.958474e-02  0 
 -8.880626e-03  -1.758346e-02  0 
 -7.969747e-03  -1.771809e-02  0 
 -8.130704e-03  -1.907579e-02  0 
 -6.471591e-03  -1.892289e-02  0 
 -5.878827e-03  -1.604738e-02  0 
 -6.035199e-03  -1.661044e-02  0 
 -8.200827e-03  -2.024886e-02  0 
 -7.746014e-03  -1.617961e-02  0 
 -6.431462e-03  -1.850071e-02  0 
 -5.846913e-03  -1.837500e-02  0 
 -5.360674e-03  -1.593855e-02  0 
VECTORS displacement_ITER5 FLOAT
 -8.985182e-03  -1.527226e-02  0 
 -9.468345e-03  -2.081735e-02  0 
 -4.980056e-03  -1.533582e-02  0 
 -5.020527e-03  -1.786024e-02  0 
 -9.246100e-03  -1.650559e-02  0 
 -9.350334e-03  -1.750175e-02  0 
 -9.408305e-03  -1.846234e-02  0 
 -9.424504e-03  -1.927568e-02  0 
 -9.435189e-03  -2.007538e-02  0 
 -8.322017e-03  -1.540042e-02  0 
 -7.635510e-03  -1.546432e-02  0 
 -6.900977e-03  -1.539750e-02  0 
 -6.170141e-03  -1.533401e-02  0 
 -5.570557e-03  -1.530474e-02  0 
 -4.964009e-03  -1.568899e-02  0 
 -5.005017e-03  -1.609928e-02  0 
 -5.031253e-03  -1.656303e-02  0 
 -5.062270e-03  -1.700588e-02  0 
 -5.076742e-03  -1.750034e-02  0 
 -8.772496e-03  -2.068132e-02  0 
 -8.113983e-03  -2.040105e-02  0 
 -7.480317e-03  -2.001976e-02  0 
 -6.858989e-03  -1.950018e-02  0 
 -6.147814e-03  -1.887097e-02  0 
 -7.588920e-03  -1.808722e-02  0 
 -6.580872e-03  -1.827101e-02  0 
 -6.383555e-03  -1.689950e-02  0 
 -7.917707e-03  -1.672893e-02  0 
 -8.221355e-03  -1.954073e-02  0 
 -5.579675e-03  -1.772718e-02  0 
 -5.351402e-03  -1.611378e-02  0 
 -8.796534e-03  -2.013376e-02  0 
 -8.427374e-03  -1.616873e-02  0 
 -5.635408e-03  -1.678560e-02  0 
 -5.734464e-03  -1.743727e-02  0 
 -6.354926e-03  -1.753895e-02  0 
 -8.310419e-03  -1.829726e-02  0 
 -7.424813e-03  -1.905142e-02  0 
 -7.145919e-03  -1.681648e-02  0 
 -7.009220e-03  -1.918709e-02  0 
 -7.108912e-03  -1.822132e-02  0 
 -6.555358e-03  -1.615241e-02  0 
 -7.021870e-03  -1.753135e-02  0 
 -8.781439e-03  -1.930592e-02  0 
 -8.615892e-03  -1.735194e-02  0 
 -7.734054e-03  -1.748630e-02  0 
 -7.894763e-03  -1.879859e-02  0 
 -6.248933e-03  -1.860248e-02  0 
 -5.755948e-03  -1.583021e-02  0 
 -5.912635e-03  -1.642297e-02  0 
 -7.968589e-03  -1.994461e-02  0 
 -7.560314e-03  -1.605172e-02  0 
 -6.217889e-03  -1.821788e-02  0 
 -5.568204e-03  -1.803255e-02  0 
 -5.280142e-03  -1.568050e-02  0 
VECTORS displacement_ITER6 FLOAT
 -8.889247e-03  -1.522358e-02  0 
 -9.358147e-03  -2.062203e-02  0 
 -4.947317e-03  -1.518973e-02  0 
 -5.042159e-03  -1.770833e-02  0 
 -9.139753e-03  -1.640120e-02  0 
 -9.242991e-03  -1.737244e-02  0 
 -9.301021e-03  -1.831463e-02  0 
 -9.315819e-03  -1.911253e-02  0 
 -9.325310e-03  -1.989633e-02  0 
 -8.203050e-03  -1.528560e-02  0 
 -7.514920e-03  -1.530851e-02  0 
 -6.848044e-03  -1.524020e-02  0 
 -6.107733e-03  -1.522617e-02  0 
 -5.511208e-03  -1.518365e-02  0 
 -4.961502e-03  -1.553855e-02  0 
 -4.996689e-03  -1.596214e-02  0 
 -5.053435e-03  -1.641054e-02  0 
 -5.091817e-03  -1.682901e-02  0 
 -5.082025e-03  -1.730888e-02  0 
 -8.678805e-03  -2.048550e-02  0 
 -8.037781e-03  -2.020248e-02  0 
 -7.424851e-03  -1.981663e-02  0 
 -6.829362e-03  -1.929187e-02  0 
 -6.141228e-03  -1.867291e-02  0 
 -7.512732e-03  -1.794302e-02  0 
 -6.535239e-03  -1.810634e-02  0 
 -6.325349e-03  -1.676180e-02  0 
 -7.834138e-03  -1.660073e-02  0 
 -8.137014e-03  -1.936958e-02  0 
 -5.582688e-03  -1.753799e-02  0 
 -5.326239e-03  -1.597348e-02  0 
 -8.700487e-03  -1.995201e-02  0 
 -8.333872e-03  -1.606398e-02  0 
 -5.608198e-03  -1.664876e-02  0 
 -5.715753e-03  -1.727381e-02  0 
 -6.304381e-03  -1.738944e-02  0 
 -8.223106e-03  -1.815294e-02  0 
 -7.358376e-03  -1.888404e-02  0 
 -7.061905e-03  -1.667586e-02  0 
 -6.961783e-03  -1.900329e-02  0 
 -7.042618e-03  -1.806932e-02  0 
 -6.489501e-03  -1.602364e-02  0 
 -6.949167e-03  -1.738810e-02  0 
 -8.685005e-03  -1.914278e-02  0 
 -8.524233e-03  -1.722318e-02  0 
 -7.653947e-03  -1.735188e-02  0 
 -7.815555e-03  -1.864319e-02  0 
 -6.236173e-03  -1.841235e-02  0 
 -5.706907e-03  -1.570906e-02  0 
 -5.866769e-03  -1.629118e-02  0 
 -7.892544e-03  -1.975932e-02  0 
 -7.462038e-03  -1.589595e-02  0 
 -6.193027e-03  -1.804104e-02  0 
 -5.578766e-03  -1.785333e-02  0 
 -5.245417e-03  -1.554693e-02  0 
VECTORS displacement_ITER7 FLOAT
 -8.858693e-03  -1.526406e-02  0 
 -9.314782e-03  -2.052894e-02  0 
 -4.902166e-03  -1.509699e-02  0 
 -5.142106e-03  -1.769246e-02  0 
 -9.101831e-03  -1.637955e-02  0 
 -9.203733e-03  -1.733386e-02  0 
 -9.260950e-03  -1.826278e-02  0 
 -9.274071e-03  -1.904767e-02  0 
 -9.282174e-03  -1.981791e-02  0 
 -8.149371e-03  -1.523384e-02  0 
 -7.451859e-03  -1.521472e-02  0 
 -6.811303e-03  -1.519212e-02  0 
 -6.131896e-03  -1.521357e-02  0 
 -5.464446e-03  -1.518265e-02  0 
 -4.982872e-03  -1.543369e-02  0 
 -5.030004e-03  -1.585036e-02  0 
 -5.085918e-03  -1.628771e-02  0 
 -5.114775e-03  -1.673756e-02  0 
 -5.123659e-03  -1.720626e-02  0 
 -8.650360e-03  -2.039162e-02  0 
 -8.024801e-03  -2.010694e-02  0 
 -7.429840e-03  -1.972008e-02  0 
 -6.848270e-03  -1.920036e-02  0 
 -6.181988e-03  -1.859219e-02  0 
 -7.494914e-03  -1.789132e-02  0 
 -6.548992e-03  -1.803157e-02  0 
 -6.308163e-03  -1.669931e-02  0 
 -7.804855e-03  -1.656200e-02  0 
 -8.116445e-03  -1.929733e-02  0 
 -5.624387e-03  -1.746316e-02  0 
 -5.336615e-03  -1.590171e-02  0 
 -8.669704e-03  -1.987094e-02  0 
 -8.307811e-03  -1.603944e-02  0 
 -5.619464e-03  -1.655749e-02  0 
 -5.747127e-03  -1.718133e-02  0 
 -6.306432e-03  -1.731595e-02  0 
 -8.198339e-03  -1.810378e-02  0 
 -7.354048e-03  -1.881259e-02  0 
 -7.028128e-03  -1.661458e-02  0 
 -6.974427e-03  -1.892054e-02  0 
 -7.035064e-03  -1.800734e-02  0 
 -6.466558e-03  -1.596239e-02  0 
 -6.928896e-03  -1.733114e-02  0 
 -8.653469e-03  -1.907830e-02  0 
 -8.496278e-03  -1.718580e-02  0 
 -7.631049e-03  -1.730685e-02  0 
 -7.798157e-03  -1.858388e-02  0 
 -6.270861e-03  -1.834102e-02  0 
 -5.696628e-03  -1.569625e-02  0 
 -5.853404e-03  -1.623256e-02  0 
 -7.880231e-03  -1.967477e-02  0 
 -7.408083e-03  -1.582630e-02  0 
 -6.223640e-03  -1.796261e-02  0 
 -5.644745e-03  -1.779840e-02  0 
 -5.233069e-03  -1.549722e-02  0 
VECTORS displacement_ITER8 FLOAT
 -8.888438e-03  -1.529608e-02  0 
 -9.356403e-03  -2.054925e-02  0 
 -4.960965e-03  -1.505631e-02  0 
 -5.197351e-03  -1.772448e-02  0 
 -9.143830e-03  -1.641238e-02  0 
 -9.247614e-03  -1.737095e-02  0 
 -9.304193e-03  -1.829863e-02  0 
 -9.316215e-03  -1.907934e-02  0 
 -9.323490e-03  -1.984487e-02  0 
 -8.216640e-03  -1.527233e-02  0 
 -7.526342e-03  -1.526048e-02  0 
 -6.837926e-03  -1.529631e-02  0 
 -6.182909e-03  -1.528901e-02  0 
 -5.505501e-03  -1.521049e-02  0 
 -5.053483e-03  -1.543407e-02  0 
 -5.101239e-03  -1.586760e-02  0 
 -5.138617e-03  -1.630390e-02  0 
 -5.150470e-03  -1.678621e-02  0 
 -5.164473e-03  -1.723790e-02  0 
 -8.698333e-03  -2.041142e-02  0 
 -8.078582e-03  -2.012813e-02  0 
 -7.487624e-03  -1.974547e-02  0 
 -6.901068e-03  -1.923611e-02  0 
 -6.230800e-03  -1.863180e-02  0 
 -7.545602e-03  -1.792557e-02  0 
 -6.610836e-03  -1.805621e-02  0 
 -6.364918e-03  -1.673183e-02  0 
 -7.851125e-03  -1.660738e-02  0 
 -8.167604e-03  -1.932506e-02  0 
 -5.670195e-03  -1.750286e-02  0 
 -5.410007e-03  -1.591883e-02  0 
 -8.716539e-03  -1.989599e-02  0 
 -8.360738e-03  -1.607216e-02  0 
 -5.685975e-03  -1.657187e-02  0 
 -5.810041e-03  -1.720382e-02  0 
 -6.368982e-03  -1.733965e-02  0 
 -8.244071e-03  -1.814097e-02  0 
 -7.411723e-03  -1.883864e-02  0 
 -7.078339e-03  -1.666520e-02  0 
 -7.034710e-03  -1.894669e-02  0 
 -7.092622e-03  -1.803537e-02  0 
 -6.511491e-03  -1.601724e-02  0 
 -6.983777e-03  -1.736648e-02  0 
 -8.698780e-03  -1.911055e-02  0 
 -8.542149e-03  -1.722359e-02  0 
 -7.677158e-03  -1.734819e-02  0 
 -7.849489e-03  -1.861485e-02  0 
 -6.322801e-03  -1.837865e-02  0 
 -5.757676e-03  -1.573779e-02  0 
 -5.914291e-03  -1.626106e-02  0 
 -7.935275e-03  -1.969865e-02  0 
 -7.461354e-03  -1.588961e-02  0 
 -6.283181e-03  -1.799062e-02  0 
 -5.692571e-03  -1.783818e-02  0 
 -5.299216e-03  -1.550391e-02  0 
VECTORS displacement_ITER9 FLOAT
 -8.918485e-03  -1.525956e-02  0 
 -9.394206e-03  -2.052457e-02  0 
 -4.979371e-03  -1.507364e-02  0 
 -5.214996e-03  -1.770396e-02  0 
 -9.173874e-03  -1.637413e-02  0 
 -9.280338e-03  -1.733118e-02  0 
 -9.339724e-03  -1.825987e-02  0 
 -9.353248e-03  -1.904489e-02  0 
 -9.361470e-03  -1.981466e-02  0 
 -8.235162e-03  -1.522409e-02  0 
 -7.565984e-03  -1.521706e-02  0 
 -6.853593e-03  -1.522617e-02  0 
 -6.195992e-03  -1.518325e-02  0 
 -5.551412e-03  -1.514980e-02  0 
 -5.078354e-03  -1.542603e-02  0 
 -5.126027e-03  -1.584163e-02  0 
 -5.161711e-03  -1.628098e-02  0 
 -5.183625e-03  -1.675371e-02  0 
 -5.211038e-03  -1.721362e-02  0 
 -8.730739e-03  -2.038722e-02  0 
 -8.106015e-03  -2.010396e-02  0 
 -7.510819e-03  -1.972027e-02  0 
 -6.925603e-03  -1.920615e-02  0 
 -6.261800e-03  -1.859728e-02  0 
 -7.576735e-03  -1.788845e-02  0 
 -6.633414e-03  -1.803071e-02  0 
 -6.389285e-03  -1.669291e-02  0 
 -7.885073e-03  -1.656109e-02  0 
 -8.197642e-03  -1.929388e-02  0 
 -5.700578e-03  -1.747717e-02  0 
 -5.420433e-03  -1.588861e-02  0 
 -8.749942e-03  -1.986727e-02  0 
 -8.387141e-03  -1.603054e-02  0 
 -5.701327e-03  -1.654274e-02  0 
 -5.830581e-03  -1.718066e-02  0 
 -6.391707e-03  -1.731186e-02  0 
 -8.277380e-03  -1.810080e-02  0 
 -7.437151e-03  -1.880934e-02  0 
 -7.114037e-03  -1.662054e-02  0 
 -7.056479e-03  -1.892052e-02  0 
 -7.119835e-03  -1.800436e-02  0 
 -6.537747e-03  -1.595679e-02  0 
 -7.014492e-03  -1.733045e-02  0 
 -8.733082e-03  -1.907543e-02  0 
 -8.574535e-03  -1.718109e-02  0 
 -7.711220e-03  -1.730533e-02  0 
 -7.879403e-03  -1.858015e-02  0 
 -6.348309e-03  -1.834854e-02  0 
 -5.774348e-03  -1.567286e-02  0 
 -5.933011e-03  -1.621820e-02  0 
 -7.962184e-03  -1.967161e-02  0 
 -7.498996e-03  -1.584337e-02  0 
 -6.305676e-03  -1.796634e-02  0 
 -5.724386e-03  -1.780204e-02  0 
 -5.318224e-03  -1.548408e-02  0 
VECTORS displacement_ITER10 FLOAT
 -8.931448e-03  -1.522598e-02  0 
 -9.398547e-03  -2.051825e-02  0 
 -4.995512e-03  -1.506679e-02  0 
 -5.213771e-03  -1.769979e-02  0 
 -9.181927e-03  -1.636802e-02  0 
 -9.285035e-03  -1.732807e-02  0 
 -9.342648e-03  -1.825876e-02  0 
 -9.356769e-03  -1.904145e-02  0 
 -9.365663e-03  -1.980960e-02  0 
 -8.239525e-03  -1.523186e-02  0 
 -7.555148e-03  -1.522379e-02  0 
 -6.883405e-03  -1.521977e-02  0 
 -6.215778e-03  -1.519961e-02  0 
 -5.550358e-03  -1.515323e-02  0 
 -5.081353e-03  -1.540450e-02  0 
 -5.138073e-03  -1.583298e-02  0 
 -5.162756e-03  -1.628594e-02  0 
 -5.182811e-03  -1.675510e-02  0 
 -5.202823e-03  -1.722622e-02  0 
 -8.736215e-03  -2.038121e-02  0 
 -8.112066e-03  -2.009924e-02  0 
 -7.516510e-03  -1.971799e-02  0 
 -6.928534e-03  -1.920813e-02  0 
 -6.257879e-03  -1.860455e-02  0 
 -7.582120e-03  -1.788231e-02  0 
 -6.640602e-03  -1.802551e-02  0 
 -6.400778e-03  -1.668928e-02  0 
 -7.885758e-03  -1.655729e-02  0 
 -8.203880e-03  -1.928880e-02  0 
 -5.701436e-03  -1.747899e-02  0 
 -5.434318e-03  -1.588405e-02  0 
 -8.755399e-03  -1.986188e-02  0 
 -8.385728e-03  -1.602758e-02  0 
 -5.714151e-03  -1.653669e-02  0 
 -5.836248e-03  -1.717909e-02  0 
 -6.401624e-03  -1.730469e-02  0 
 -8.281657e-03  -1.809660e-02  0 
 -7.444111e-03  -1.880382e-02  0 
 -7.119269e-03  -1.661357e-02  0 
 -7.062673e-03  -1.891744e-02  0 
 -7.126815e-03  -1.799718e-02  0 
 -6.554627e-03  -1.595940e-02  0 
 -7.020810e-03  -1.732343e-02  0 
 -8.738206e-03  -1.907118e-02  0 
 -8.575726e-03  -1.717997e-02  0 
 -7.714993e-03  -1.729979e-02  0 
 -7.885409e-03  -1.857451e-02  0 
 -6.349879e-03  -1.834981e-02  0 
 -5.787370e-03  -1.567959e-02  0 
 -5.945870e-03  -1.621808e-02  0 
 -7.968837e-03  -1.966676e-02  0 
 -7.498994e-03  -1.583881e-02  0 
 -6.310031e-03  -1.796439e-02  0 
 -5.718839e-03  -1.780970e-02  0 
 -5.324496e-03  -1.547152e-02  0 
VECTORS displacement_ITER11 FLOAT
 -8.915960e-03  -1.520857e-02  0 
 -9.391923e-03  -2.049966e-02  0 
 -4.997335e-03  -1.506191e-02  0 
 -5.206820e-03  -1.769107e-02  0 
 -9.169381e-03  -1.634415e-02  0 
 -9.275764e-03  -1.730219e-02  0 
 -9.335800e-03  -1.823294e-02  0 
 -9.350243e-03  -1.901838e-02  0 
 -9.359156e-03  -1.978873e-02  0 
 -8.221945e-03  -1.520229e-02  0 
 -7.545217e-03  -1.519028e-02  0 
 -6.878296e-03  -1.516995e-02  0 
 -6.195496e-03  -1.516582e-02  0 
 -5.557472e-03  -1.512328e-02  0 
 -5.076356e-03  -1.539320e-02  0 
 -5.131152e-03  -1.582006e-02  0 
 -5.160688e-03  -1.628045e-02  0 
 -5.187200e-03  -1.673593e-02  0 
 -5.200521e-03  -1.721403e-02  0 
 -8.727344e-03  -2.036265e-02  0 
 -8.101455e-03  -2.008038e-02  0 
 -7.505093e-03  -1.969845e-02  0 
 -6.919770e-03  -1.918671e-02  0 
 -6.251118e-03  -1.858597e-02  0 
 -7.573020e-03  -1.785889e-02  0 
 -6.629924e-03  -1.800782e-02  0 
 -6.391464e-03  -1.666559e-02  0 
 -7.879262e-03  -1.652646e-02  0 
 -8.194076e-03  -1.926757e-02  0 
 -5.698849e-03  -1.745970e-02  0 
 -5.426227e-03  -1.586427e-02  0 
 -8.746880e-03  -1.984160e-02  0 
 -8.374089e-03  -1.600032e-02  0 
 -5.706582e-03  -1.652172e-02  0 
 -5.827352e-03  -1.716520e-02  0 
 -6.391557e-03  -1.728577e-02  0 
 -8.273124e-03  -1.807145e-02  0 
 -7.433180e-03  -1.878383e-02  0 
 -7.110036e-03  -1.658728e-02  0 
 -7.051337e-03  -1.889879e-02  0 
 -7.116688e-03  -1.797642e-02  0 
 -6.542453e-03  -1.593084e-02  0 
 -7.011477e-03  -1.730020e-02  0 
 -8.730005e-03  -1.904825e-02  0 
 -8.567814e-03  -1.715149e-02  0 
 -7.706809e-03  -1.727391e-02  0 
 -7.875713e-03  -1.855201e-02  0 
 -6.343209e-03  -1.833008e-02  0 
 -5.780235e-03  -1.564591e-02  0 
 -5.938646e-03  -1.619373e-02  0 
 -7.957930e-03  -1.964705e-02  0 
 -7.493238e-03  -1.580269e-02  0 
 -6.300856e-03  -1.794726e-02  0 
 -5.714554e-03  -1.779345e-02  0 
 -5.321905e-03  -1.545310e-02  0 
VECTORS displacement_ITER12 FLOAT
 -8.899716e-03  -1.520262e-02  0 
 -9.382606e-03  -2.048596e-02  0 
 -5.001261e-03  -1.503286e-02  0 
 -5.211059e-03  -1.768457e-02  0 
 -9.157993e-03  -1.633644e-02  0 
 -9.265977e-03  -1.729466e-02  0 
 -9.326619e-03  -1.822428e-02  0 
 -9.341004e-03  -1.900835e-02  0 
 -9.349800e-03  -1.977707e-02  0 
 -8.216855e-03  -1.519436e-02  0 
 -7.543962e-03  -1.518582e-02  0 
 -6.869441e-03  -1.517556e-02  0 
 -6.193854e-03  -1.516844e-02  0 
 -5.559872e-03  -1.512084e-02  0 
 -5.080341e-03  -1.538676e-02  0 
 -5.132057e-03  -1.581215e-02  0 
 -5.161759e-03  -1.627231e-02  0 
 -5.186063e-03  -1.673310e-02  0 
 -5.198695e-03  -1.720716e-02  0 
 -8.719996e-03  -2.034886e-02  0 
 -8.096103e-03  -2.006696e-02  0 
 -7.501633e-03  -1.968610e-02  0 
 -6.916841e-03  -1.917687e-02  0 
 -6.249129e-03  -1.857838e-02  0 
 -7.567611e-03  -1.785014e-02  0 
 -6.628885e-03  -1.799816e-02  0 
 -6.390197e-03  -1.665791e-02  0 
 -7.871921e-03  -1.652013e-02  0 
 -8.187932e-03  -1.925648e-02  0 
 -5.697947e-03  -1.745379e-02  0 
 -5.431013e-03  -1.585498e-02  0 
 -8.739238e-03  -1.982946e-02  0 
 -8.366624e-03  -1.599146e-02  0 
 -5.709130e-03  -1.651281e-02  0 
 -5.828841e-03  -1.715699e-02  0 
 -6.391182e-03  -1.727671e-02  0 
 -8.265536e-03  -1.806299e-02  0 
 -7.429538e-03  -1.877305e-02  0 
 -7.105330e-03  -1.658262e-02  0 
 -7.049153e-03  -1.888801e-02  0 
 -7.113603e-03  -1.796683e-02  0 
 -6.538014e-03  -1.592751e-02  0 
 -7.008124e-03  -1.729229e-02  0 
 -8.722011e-03  -1.903824e-02  0 
 -8.559545e-03  -1.714344e-02  0 
 -7.700013e-03  -1.726674e-02  0 
 -7.869973e-03  -1.854211e-02  0 
 -6.341702e-03  -1.832263e-02  0 
 -5.782390e-03  -1.564048e-02  0 
 -5.939866e-03  -1.618582e-02  0 
 -7.952928e-03  -1.963478e-02  0 
 -7.488099e-03  -1.580052e-02  0 
 -6.300519e-03  -1.793851e-02  0 
 -5.714263e-03  -1.778850e-02  0 
 -5.329925e-03  -1.544285e-02  0 
VECTORS displacement_ITER13 FLOAT
 -8.891487e-03  -1.518914e-02  0 
 -9.377862e-03  -2.048139e-02  0 
 -5.000287e-03  -1.502436e-02  0 
 -5.208710e-03  -1.768523e-02  0 
 -9.152597e-03  -1.632900e-02  0 
 -9.260900e-03  -1.728981e-02  0 
 -9.321489e-03  -1.822031e-02  0 
 -9.336090e-03  -1.900415e-02  0 
 -9.345046e-03  -1.977267e-02  0 
 -8.214450e-03  -1.518697e-02  0 
 -7.540667e-03  -1.518391e-02  0 
 -6.862359e-03  -1.517974e-02  0 
 -6.197084e-03  -1.516147e-02  0 
 -5.555145e-03  -1.511850e-02  0 
 -5.076068e-03  -1.538318e-02  0 
 -5.124657e-03  -1.580756e-02  0 
 -5.157057e-03  -1.626620e-02  0 
 -5.180535e-03  -1.673451e-02  0 
 -5.195177e-03  -1.720765e-02  0 
 -8.715390e-03  -2.034435e-02  0 
 -8.091616e-03  -2.006279e-02  0 
 -7.497272e-03  -1.968268e-02  0 
 -6.911892e-03  -1.917504e-02  0 
 -6.244576e-03  -1.857772e-02  0 
 -7.563266e-03  -1.784518e-02  0 
 -6.625716e-03  -1.799491e-02  0 
 -6.388057e-03  -1.665392e-02  0 
 -7.865318e-03  -1.651579e-02  0 
 -8.183511e-03  -1.925209e-02  0 
 -5.693910e-03  -1.745458e-02  0 
 -5.427559e-03  -1.584982e-02  0 
 -8.734650e-03  -1.982503e-02  0 
 -8.361064e-03  -1.598361e-02  0 
 -5.706025e-03  -1.650931e-02  0 
 -5.826621e-03  -1.715457e-02  0 
 -6.388564e-03  -1.727353e-02  0 
 -8.260566e-03  -1.805823e-02  0 
 -7.425527e-03  -1.876886e-02  0 
 -7.102449e-03  -1.657764e-02  0 
 -7.045213e-03  -1.888473e-02  0 
 -7.109984e-03  -1.796255e-02  0 
 -6.537078e-03  -1.592215e-02  0 
 -7.004995e-03  -1.728773e-02  0 
 -8.717356e-03  -1.903386e-02  0 
 -8.553616e-03  -1.713875e-02  0 
 -7.695034e-03  -1.726141e-02  0 
 -7.865540e-03  -1.853743e-02  0 
 -6.337349e-03  -1.832194e-02  0 
 -5.779934e-03  -1.563741e-02  0 
 -5.937248e-03  -1.618178e-02  0 
 -7.948601e-03  -1.963059e-02  0 
 -7.482452e-03  -1.579977e-02  0 
 -6.297290e-03  -1.793654e-02  0 
 -5.710543e-03  -1.778901e-02  0 
 -5.327427e-03  -1.543714e-02  0 
VECTORS displacement_ITER14 FLOAT
 -8.884686e-03  -1.518487e-02  0 
 -9.369933e-03  -2.047461e-02  0 
 -4.994245e-03  -1.503160e-02  0 
 -5.202603e-03  -1.768173e-02  0 
 -9.145063e-03  -1.632227e-02  0 
 -9.253131e-03  -1.728267e-02  0 
 -9.313623e-03  -1.821289e-02  0 
 -9.328228e-03  -1.899684e-02  0 
 -9.337182e-03  -1.976552e-02  0 
 -8.205872e-03  -1.517903e-02  0 
 -7.528985e-03  -1.517386e-02  0 
 -6.853580e-03  -1.516777e-02  0 
 -6.192563e-03  -1.514724e-02  0 
 -5.541442e-03  -1.510703e-02  0 
 -5.065490e-03  -1.537510e-02  0 
 -5.117831e-03  -1.580581e-02  0 
 -5.152967e-03  -1.625855e-02  0 
 -5.176723e-03  -1.672540e-02  0 
 -5.193759e-03  -1.719436e-02  0 
 -8.707157e-03  -2.033759e-02  0 
 -8.083212e-03  -2.005561e-02  0 
 -7.489147e-03  -1.967457e-02  0 
 -6.905265e-03  -1.916519e-02  0 
 -6.241167e-03  -1.856646e-02  0 
 -7.555165e-03  -1.783829e-02  0 
 -6.617272e-03  -1.798836e-02  0 
 -6.379284e-03  -1.664749e-02  0 
 -7.857229e-03  -1.650857e-02  0 
 -8.175109e-03  -1.924511e-02  0 
 -5.688921e-03  -1.744524e-02  0 
 -5.417670e-03  -1.584602e-02  0 
 -8.726471e-03  -1.981806e-02  0 
 -8.353688e-03  -1.597694e-02  0 
 -5.696338e-03  -1.650504e-02  0 
 -5.819151e-03  -1.714730e-02  0 
 -6.379383e-03  -1.726800e-02  0 
 -8.252896e-03  -1.805090e-02  0 
 -7.416833e-03  -1.876218e-02  0 
 -7.094500e-03  -1.656844e-02  0 
 -7.036989e-03  -1.887717e-02  0 
 -7.101243e-03  -1.795634e-02  0 
 -6.530169e-03  -1.591147e-02  0 
 -6.996473e-03  -1.728083e-02  0 
 -8.709398e-03  -1.902656e-02  0 
 -8.545967e-03  -1.713172e-02  0 
 -7.687448e-03  -1.725378e-02  0 
 -7.857263e-03  -1.853062e-02  0 
 -6.331676e-03  -1.831276e-02  0 
 -5.770509e-03  -1.563125e-02  0 
 -5.927695e-03  -1.617608e-02  0 
 -7.939982e-03  -1.962355e-02  0 
 -7.472541e-03  -1.579052e-02  0 
 -6.290203e-03  -1.792887e-02  0 
 -5.708103e-03  -1.777757e-02  0 
 -5.313460e-03  -1.542987e-02  0 
VECTORS displacement_ITER15 FLOAT
 -8.894803e-03  -1.518738e-02  0 
 -9.379246e-03  -2.048216e-02  0 
 -4.997960e-03  -1.502893e-02  0 
 -5.208343e-03  -1.768526e-02  0 
 -9.154894e-03  -1.632720e-02  0 
 -9.262805e-03  -1.728820e-02  0 
 -9.323162e-03  -1.821918e-02  0 
 -9.337616e-03  -1.900363e-02  0 
 -9.346466e-03  -1.977277e-02  0 
 -8.215407e-03  -1.518502e-02  0 
 -7.539026e-03  -1.518146e-02  0 
 -6.864260e-03  -1.517255e-02  0 
 -6.194620e-03  -1.515702e-02  0 
 -5.550936e-03  -1.511158e-02  0 
 -5.074159e-03  -1.538144e-02  0 
 -5.124862e-03  -1.581098e-02  0 
 -5.158174e-03  -1.626284e-02  0 