# vtk DataFile Version 3.1
this is an vtk file created by FEMAC
ASCII
DATASET UNSTRUCTURED_GRID
POINTS 55 FLOAT
4.000000 0.000000 0.000000
5.000000 0.000000 0.000000
4.000000 1.000000 0.000000
5.000000 1.000000 0.000000
4.166667 0.000000 0.000000
4.333333 0.000000 0.000000
4.500000 0.000000 0.000000
4.666667 0.000000 0.000000
4.833333 0.000000 0.000000
4.000000 0.166667 0.000000
4.000000 0.333333 0.000000
4.000000 0.500000 0.000000
4.000000 0.666667 0.000000
4.000000 0.833333 0.000000
4.166667 1.000000 0.000000
4.333333 1.000000 0.000000
4.500000 1.000000 0.000000
4.666667 1.000000 0.000000
4.833333 1.000000 0.000000
5.000000 0.166667 0.000000
5.000000 0.333333 0.000000
5.000000 0.500000 0.000000
5.000000 0.666667 0.000000
5.000000 0.833333 0.000000
4.499028 0.357609 0.000000
4.666076 0.617149 0.000000
4.328744 0.608420 0.000000
4.236435 0.261987 0.000000
4.762188 0.265181 0.000000
4.770672 0.869358 0.000000
4.227817 0.867634 0.000000
4.863709 0.144877 0.000000
4.135859 0.143875 0.000000
4.393692 0.797424 0.000000
4.601780 0.799754 0.000000
4.497673 0.631909 0.000000
4.499636 0.210492 0.000000
4.728690 0.438608 0.000000
4.268597 0.432863 0.000000
4.844620 0.571692 0.000000
4.569780 0.473901 0.000000
4.153356 0.567544 0.000000
4.422752 0.470333 0.000000
4.678891 0.134180 0.000000
4.320660 0.133379 0.000000
4.374518 0.311111 0.000000
4.623035 0.313329 0.000000
4.879362 0.763647 0.000000
4.119542 0.761895 0.000000
4.252744 0.719527 0.000000
4.885601 0.345766 0.000000
4.113464 0.343753 0.000000
4.744214 0.724164 0.000000
4.896674 0.893268 0.000000
4.102805 0.892572 0.000000
CELLS 84 336 
3 31  8  1
3 19 31  1
3 4 32  0
3 32  9  0
3 34 16 33
3 26 35 33
3 25 40 37
3 40 25 35
3 42 26 38
3 26 42 35
3 28 43 31
3 44 27 32
3 27 45 38
3 46 28 37
3 47 22 23
3 22 47 39
3 12 48 13
3 48 12 41
3 49 26 33
3 30 49 33
3 26 49 41
3 50 28 31
3 27 51 32
3 25 52 34
3 52 29 34
3 52 25 39
3 34 35 25
3 34 33 35
3 40 42 24
3 40 35 42
3 36 46 24
3 45 36 24
3 46 40 24
3 37 40 46
3 42 45 24
3 42 38 45
3 52 47 29
3 39 47 52
3 48 49 30
3 48 41 49
3 17 16 34
3 29 17 34
3 29 18 17
3 21 50 20
3 28 50 37
3 51 11 10
3 27 38 51
3 6 44  5
3 6 36 44
3 45 27 44
3 44 36 45
3 43  6  7
3 36  6 43
3 28 46 43
3 36 43 46
3 39 21 22
3 39 50 21
3 39 25 37
3 37 50 39
3 11 41 12
3 41 11 51
3 41 38 26
3 51 38 41
3 16 15 33
3 15 30 33
3 14 30 15
3 4  5 44
3 32  4 44
3 10  9 51
3 9 32 51
3 7  8 43
3 8 31 43
3 19 20 50
3 31 19 50
3 18 53  3
3 23 53 47
3 53 23  3
3 13 54  2
3 54 14  2
3 54 13 48
3 29 53 18
3 29 47 53
3 54 30 14
3 48 30 54
CELL_TYPES 84
5 5 5 5 5 5 5 5 5 5 5 5 5 5 5 5 5 5 5 5 5 5 5 5 5 5 5 5 5 5 5 5 5 5 5 5 5 5 5 5 5 5 5 5 5 5 5 5 5 5 5 5 5 5 5 5 5 5 5 5 5 5 5 5 5 5 5 5 5 5 5 5 5 5 5 5 5 5 5 5 5 5 5 5 
POINT_DATA 55
VECTORS displacement_ITER1 FLOAT
 -1.527382e-02  -1.777318e-02  0 
 -1.538600e-02  -2.424541e-02  0 
 -8.689522e-03  -1.735648e-02  0 
 -8.850966e-03  -2.422465e-02  0 
 -1.529950e-02  -1.881819e-02  0 
 -1.532529e-02  -1.988531e-02  0 
 -1.534832e-02  -2.095805e-02  0 
 -1.536441e-02  -2.205058e-02  0 
 -1.537803e-02  -2.314352e-02  0 
 -1.422457e-02  -1.774007e-02  0 
 -1.315418e-02  -1.770045e-02  0 
 -1.207433e-02  -1.765032e-02  0 
 -1.097983e-02  -1.759036e-02  0 
 -9.861398e-03  -1.750547e-02  0 
 -8.724011e-03  -1.863211e-02  0 
 -8.760976e-03  -1.979907e-02  0 
 -8.780035e-03  -2.092490e-02  0 
 -8.796329e-03  -2.203342e-02  0 
 -8.820865e-03  -2.313382e-02  0 
 -1.428351e-02  -2.423977e-02  0 
 -1.318817e-02  -2.423825e-02  0 
 -1.208976e-02  -2.423412e-02  0 
 -1.099459e-02  -2.423380e-02  0 
 -9.911513e-03  -2.422965e-02  0 
 -1.302962e-02  -2.093158e-02  0 
 -1.132918e-02  -2.203812e-02  0 
 -1.139257e-02  -1.979468e-02  0 
 -1.363772e-02  -1.922888e-02  0 
 -1.363350e-02  -2.266461e-02  0 
 -9.672461e-03  -2.273623e-02  0 
 -9.661111e-03  -1.908504e-02  0 
 -1.442473e-02  -2.333799e-02  0 
 -1.438459e-02  -1.860212e-02  0 
 -1.013892e-02  -2.022211e-02  0 
 -1.012647e-02  -2.161687e-02  0 
 -1.123652e-02  -2.092202e-02  0 
 -1.398358e-02  -2.094030e-02  0 
 -1.249740e-02  -2.244407e-02  0 
 -1.253758e-02  -1.941726e-02  0 
 -1.162082e-02  -2.321271e-02  0 
 -1.227095e-02  -2.139745e-02  0 
 -1.165248e-02  -1.863716e-02  0 
 -1.229707e-02  -2.042667e-02  0 
 -1.448860e-02  -2.211834e-02  0 
 -1.446989e-02  -1.978313e-02  0 
 -1.332872e-02  -2.011906e-02  0 
 -1.331777e-02  -2.174611e-02  0 
 -1.036318e-02  -2.344795e-02  0 
 -1.036633e-02  -1.835828e-02  0 
 -1.065640e-02  -1.927276e-02  0 
 -1.310507e-02  -2.347995e-02  0 
 -1.310265e-02  -1.842581e-02  0 
 -1.062370e-02  -2.255845e-02  0 
 -9.524292e-03  -2.356221e-02  0 
 -9.481441e-03  -1.819331e-02  0 
VECTORS displacement_ITER2 FLOAT
 -1.156609e-02  -1.308234e-02  0 
 -1.166480e-02  -1.838400e-02  0 
 -6.087428e-03  -1.262849e-02  0 
 -6.336508e-03  -1.832797e-02  0 
 -1.159141e-02  -1.392738e-02  0 
 -1.161564e-02  -1.480149e-02  0 
 -1.163644e-02  -1.568117e-02  0 
 -1.164927e-02  -1.658025e-02  0 
 -1.165956e-02  -1.747906e-02  0 
 -1.071456e-02  -1.304233e-02  0 
 -9.834241e-03  -1.300276e-02  0 
 -8.945559e-03  -1.295909e-02  0 
 -8.041411e-03  -1.290665e-02  0 
 -7.109368e-03  -1.281445e-02  0 
 -6.155466e-03  -1.375101e-02  0 
 -6.204477e-03  -1.472471e-02  0 
 -6.229125e-03  -1.565745e-02  0 
 -6.252954e-03  -1.656614e-02  0 
 -6.288197e-03  -1.745905e-02  0 
 -1.075974e-02  -1.838081e-02  0 
 -9.858667e-03  -1.838058e-02  0 
 -8.954048e-03  -1.837866e-02  0 
 -8.054706e-03  -1.837190e-02  0 
 -7.173643e-03  -1.835329e-02  0 
 -9.730642e-03  -1.566195e-02  0 
 -8.329370e-03  -1.657474e-02  0 
 -8.384377e-03  -1.472762e-02  0 
 -1.023310e-02  -1.426165e-02  0 
 -1.022571e-02  -1.708655e-02  0 
 -6.974117e-03  -1.714689e-02  0 
 -6.949284e-03  -1.413946e-02  0 
 -1.087616e-02  -1.763979e-02  0 
 -1.084671e-02  -1.374839e-02  0 
 -7.349185e-03  -1.508222e-02  0 
 -7.341670e-03  -1.623185e-02  0 
 -8.254726e-03  -1.565848e-02  0 
 -1.051483e-02  -1.566769e-02  0 
 -9.290326e-03  -1.690575e-02  0 
 -9.327693e-03  -1.441659e-02  0 
 -8.567533e-03  -1.753784e-02  0 
 -9.105482e-03  -1.604653e-02  0 
 -8.598443e-03  -1.377242e-02  0 
 -9.128806e-03  -1.524790e-02  0 
 -1.092925e-02  -1.663660e-02  0 
 -1.091562e-02  -1.471556e-02  0 
 -9.977867e-03  -1.499350e-02  0 
 -9.966415e-03  -1.633117e-02  0 
 -7.536744e-03  -1.772715e-02  0 
 -7.536362e-03  -1.353588e-02  0 
 -7.776989e-03  -1.429603e-02  0 
 -9.790655e-03  -1.775735e-02  0 
 -9.793117e-03  -1.360031e-02  0 
 -7.749572e-03  -1.700210e-02  0 
 -6.859693e-03  -1.781518e-02  0 
 -6.794904e-03  -1.338974e-02  0 
VECTORS displacement_ITER3 FLOAT
 -1.013007e-02  -1.183244e-02  0 
 -1.020543e-02  -1.647433e-02  0 
 -5.283800e-03  -1.139255e-02  0 
 -5.616868e-03  -1.635131e-02  0 
 -1.014744e-02  -1.257891e-02  0 
 -1.016486e-02  -1.334382e-02  0 
 -1.018028e-02  -1.411271e-02  0 
 -1.019103e-02  -1.489728e-02  0 
 -1.020019e-02  -1.568246e-02  0 
 -9.379102e-03  -1.180687e-02  0 
 -8.610084e-03  -1.177676e-02  0 
 -7.835670e-03  -1.174207e-02  0 
 -7.044814e-03  -1.169270e-02  0 
 -6.221493e-03  -1.159447e-02  0 
 -5.371695e-03  -1.241832e-02  0 
 -5.433845e-03  -1.328080e-02  0 
 -5.468230e-03  -1.409762e-02  0 
 -5.500285e-03  -1.488531e-02  0 
 -5.548722e-03  -1.564558e-02  0 
 -9.413599e-03  -1.647029e-02  0 
 -8.625477e-03  -1.646594e-02  0 
 -7.839188e-03  -1.646044e-02  0 
 -7.058296e-03  -1.644962e-02  0 
 -6.297841e-03  -1.641328e-02  0 
 -8.516127e-03  -1.409796e-02  0 
 -7.293452e-03  -1.489473e-02  0 
 -7.344876e-03  -1.328701e-02  0 
 -8.956126e-03  -1.287569e-02  0 
 -8.946350e-03  -1.533909e-02  0 
 -6.123328e-03  -1.538981e-02  0 
 -6.085012e-03  -1.277339e-02  0 
 -9.515106e-03  -1.582251e-02  0 
 -9.492998e-03  -1.242519e-02  0 
 -6.440362e-03  -1.360144e-02  0 
 -6.437001e-03  -1.460129e-02  0 
 -7.229977e-03  -1.410083e-02  0 
 -9.200812e-03  -1.410185e-02  0 
 -8.129927e-03  -1.518215e-02  0 
 -8.167056e-03  -1.301241e-02  0 
 -7.501176e-03  -1.572953e-02  0 
 -7.969840e-03  -1.443471e-02  0 
 -7.532965e-03  -1.245151e-02  0 
 -7.992311e-03  -1.373873e-02  0 
 -9.561709e-03  -1.494641e-02  0 
 -9.551831e-03  -1.327140e-02  0 
 -8.732906e-03  -1.351459e-02  0 
 -8.720816e-03  -1.468102e-02  0 
 -6.605797e-03  -1.588659e-02  0 
 -6.603633e-03  -1.224087e-02  0 
 -6.814961e-03  -1.291068e-02  0 
 -8.565718e-03  -1.592355e-02  0 
 -8.572981e-03  -1.229917e-02  0 
 -6.789685e-03  -1.526462e-02  0 
 -6.030106e-03  -1.595548e-02  0 
 -5.942977e-03  -1.210541e-02  0 
VECTORS displacement_ITER4 FLOAT
 -9.181639e-03  -1.129732e-02  0 
 -9.246254e-03  -1.556520e-02  0 
 -4.707292e-03  -1.087712e-02  0 
 -5.072762e-03  -1.540456e-02  0 
 -9.194713e-03  -1.198862e-02  0 
 -9.208921e-03  -1.269132e-02  0 
 -9.222066e-03  -1.339734e-02  0 
 -9.232185e-03  -1.411699e-02  0 
 -9.241046e-03  -1.483768e-02  0 
 -8.487631e-03  -1.128153e-02  0 
 -7.783085e-03  -1.125716e-02  0 
 -7.073486e-03  -1.122520e-02  0 
 -6.348343e-03  -1.117589e-02  0 
 -5.589859e-03  -1.107829e-02  0 
 -4.802289e-03  -1.183770e-02  0 
 -4.868081e-03  -1.263744e-02  0 
 -4.903702e-03  -1.338820e-02  0 
 -4.937253e-03  -1.410866e-02  0 
 -4.991868e-03  -1.479496e-02  0 
 -8.518957e-03  -1.556092e-02  0 
 -7.795511e-03  -1.555585e-02  0 
 -7.072925e-03  -1.554924e-02  0 
 -6.356413e-03  -1.553477e-02  0 
 -5.665572e-03  -1.548867e-02  0 
 -7.695092e-03  -1.338332e-02  0 
 -6.572599e-03  -1.411500e-02  0 
 -6.623324e-03  -1.264221e-02  0 
 -8.098870e-03  -1.226297e-02  0 
 -8.089560e-03  -1.452181e-02  0 
 -5.505198e-03  -1.456938e-02  0 
 -5.465386e-03  -1.217185e-02  0 
 -8.611950e-03  -1.496598e-02  0 
 -8.591203e-03  -1.184903e-02  0 
 -5.793169e-03  -1.293379e-02  0 
 -5.790379e-03  -1.385007e-02  0 
 -6.516371e-03  -1.338956e-02  0 
 -8.323230e-03  -1.338674e-02  0 
 -7.339447e-03  -1.437708e-02  0 
 -7.376767e-03  -1.238873e-02  0 
 -6.761776e-03  -1.487797e-02  0 
 -7.193511e-03  -1.369272e-02  0 
 -6.796826e-03  -1.187481e-02  0 
 -7.215642e-03  -1.305503e-02  0 
 -8.654592e-03  -1.416167e-02  0 
 -8.645146e-03  -1.262595e-02  0 
 -7.894338e-03  -1.284843e-02  0 
 -7.882396e-03  -1.391775e-02  0 
 -5.942176e-03  -1.501882e-02  0 
 -5.943790e-03  -1.167954e-02  0 
 -6.137803e-03  -1.229738e-02  0 
 -7.740161e-03  -1.505787e-02  0 
 -7.748447e-03  -1.173550e-02  0 
 -6.110989e-03  -1.445370e-02  0 
 -5.423256e-03  -1.507732e-02  0 
 -5.331546e-03  -1.155261e-02  0 
VECTORS displacement_ITER5 FLOAT
 -8.952373e-03  -1.127779e-02  0 
 -9.015187e-03  -1.541518e-02  0 
 -4.611950e-03  -1.086866e-02  0 
 -4.976156e-03  -1.524968e-02  0 
 -8.964512e-03  -1.194780e-02  0 
 -8.977875e-03  -1.262842e-02  0 
 -8.990342e-03  -1.331211e-02  0 
 -9.000389e-03  -1.400949e-02  0 
 -9.009449e-03  -1.470809e-02  0 
 -8.279509e-03  -1.126293e-02  0 
 -7.597321e-03  -1.124053e-02  0 
 -6.910144e-03  -1.120905e-02  0 
 -6.207078e-03  -1.115965e-02  0 
 -5.471182e-03  -1.106375e-02  0 
 -4.707339e-03  -1.180131e-02  0 
 -4.773226e-03  -1.257757e-02  0 
 -4.808790e-03  -1.330350e-02  0 
 -4.842277e-03  -1.400046e-02  0 
 -4.896049e-03  -1.466549e-02  0 
 -8.308933e-03  -1.540880e-02  0 
 -7.608178e-03  -1.540251e-02  0 
 -6.908139e-03  -1.539558e-02  0 
 -6.215875e-03  -1.538084e-02  0 
 -5.546774e-03  -1.533610e-02  0 
 -7.511294e-03  -1.329924e-02  0 
 -6.424150e-03  -1.400802e-02  0 
 -6.473594e-03  -1.258207e-02  0 
 -7.902766e-03  -1.221402e-02  0 
 -7.892733e-03  -1.440156e-02  0 
 -5.391770e-03  -1.444700e-02  0 
 -5.350939e-03  -1.212676e-02  0 
 -8.398842e-03  -1.483211e-02  0 
 -8.379718e-03  -1.181289e-02  0 
 -5.669015e-03  -1.286490e-02  0 
 -5.667022e-03  -1.375147e-02  0 
 -6.369715e-03  -1.330605e-02  0 
 -8.119721e-03  -1.330219e-02  0 
 -7.166509e-03  -1.426161e-02  0 
 -7.203571e-03  -1.233601e-02  0 
 -6.607257e-03  -1.474634e-02  0 
 -7.025392e-03  -1.359918e-02  0 
 -6.642156e-03  -1.183829e-02  0 
 -7.047147e-03  -1.298160e-02  0 
 -8.440365e-03  -1.405247e-02  0 
 -8.431755e-03  -1.256539e-02  0 
 -7.704552e-03  -1.278104e-02  0 
 -7.692409e-03  -1.381671e-02  0 
 -5.814576e-03  -1.488151e-02  0 
 -5.814957e-03  -1.164867e-02  0 
 -6.003101e-03  -1.224812e-02  0 
 -7.554278e-03  -1.492039e-02  0 
 -7.563597e-03  -1.170341e-02  0 
 -5.977508e-03  -1.433553e-02  0 
 -5.312161e-03  -1.493799e-02  0 
 -5.220131e-03  -1.152564e-02  0 
VECTORS displacement_ITER6 FLOAT
 -8.825539e-03  -1.124749e-02  0 
 -8.888327e-03  -1.528922e-02  0 
 -4.581766e-03  -1.084275e-02  0 
 -4.939486e-03  -1.512619e-02  0 
 -8.837978e-03  -1.190112e-02  0 
 -8.851512e-03  -1.256620e-02  0 
 -8.864080e-03  -1.323434e-02  0 
 -8.874024e-03  -1.391596e-02  0 
 -8.882884e-03  -1.459871e-02  0 
 -8.168737e-03  -1.123131e-02  0 
 -7.501731e-03  -1.120944e-02  0 
 -6.830500e-03  -1.117832e-02  0 
 -6.143469e-03  -1.112883e-02  0 
 -5.423079e-03  -1.103299e-02  0 
 -4.675679e-03  -1.175462e-02  0 
 -4.740759e-03  -1.251454e-02  0 
 -4.776196e-03  -1.322467e-02  0 
 -4.809730e-03  -1.390567e-02  0 
 -4.862418e-03  -1.455634e-02  0 
 -8.198571e-03  -1.528358e-02  0 
 -7.513682e-03  -1.527785e-02  0 
 -6.828796e-03  -1.527104e-02  0 
 -6.152426e-03  -1.525566e-02  0 
 -5.498519e-03  -1.521161e-02  0 
 -7.418494e-03  -1.322116e-02  0 
 -6.355616e-03  -1.391396e-02  0 
 -6.404131e-03  -1.251975e-02  0 
 -7.800759e-03  -1.216076e-02  0 
 -7.791659e-03  -1.429901e-02  0 
 -5.346697e-03  -1.434250e-02  0 
 -5.305783e-03  -1.207405e-02  0 
 -8.286415e-03  -1.471995e-02  0 
 -8.266938e-03  -1.176893e-02  0 
 -5.617267e-03  -1.279632e-02  0 
 -5.615438e-03  -1.366312e-02  0 
 -6.302461e-03  -1.322770e-02  0 
 -8.013174e-03  -1.322429e-02  0 
 -7.081536e-03  -1.416192e-02  0 
 -7.117540e-03  -1.227942e-02  0 
 -6.534568e-03  -1.463590e-02  0 
 -6.943504e-03  -1.351428e-02  0 
 -6.568939e-03  -1.179267e-02  0 
 -6.964762e-03  -1.291048e-02  0 
 -8.326820e-03  -1.395791e-02  0 
 -8.317901e-03  -1.250425e-02  0 
 -7.607264e-03  -1.271471e-02  0 
 -7.595643e-03  -1.372711e-02  0 
 -5.760052e-03  -1.476731e-02  0 
 -5.760032e-03  -1.160657e-02  0 
 -5.944086e-03  -1.219308e-02  0 
 -7.460913e-03  -1.480626e-02  0 
 -7.468966e-03  -1.166159e-02  0 
 -5.919033e-03  -1.423400e-02  0 
 -5.268666e-03  -1.482194e-02  0 
 -5.177212e-03  -1.148554e-02  0 
VECTORS displacement_ITER7 FLOAT
 -8.775841e-03  -1.122576e-02  0 
 -8.838721e-03  -1.523806e-02  0 
 -4.563191e-03  -1.082585e-02  0 
 -4.913886e-03  -1.507897e-02  0 
 -8.788560e-03  -1.187404e-02  0 
 -8.802339e-03  -1.253447e-02  0 
 -8.815071e-03  -1.319806e-02  0 
 -8.824907e-03  -1.387508e-02  0 
 -8.833560e-03  -1.455312e-02  0 
 -8.124153e-03  -1.120877e-02  0 
 -7.461865e-03  -1.118635e-02  0 
 -6.794829e-03  -1.115561e-02  0 
 -6.112884e-03  -1.110748e-02  0 
 -5.398040e-03  -1.101287e-02  0 
 -4.656064e-03  -1.172883e-02  0 
 -4.720043e-03  -1.248274e-02  0 
 -4.754882e-03  -1.318841e-02  0 
 -4.787708e-03  -1.386476e-02  0 
 -4.839527e-03  -1.451080e-02  0 
 -8.154253e-03  -1.523342e-02  0 
 -7.474039e-03  -1.522825e-02  0 
 -6.793518e-03  -1.522110e-02  0 
 -6.121038e-03  -1.520532e-02  0 
 -5.472150e-03  -1.516163e-02  0 
 -7.379103e-03  -1.318474e-02  0 
 -6.323252e-03  -1.387269e-02  0 
 -6.371409e-03  -1.248804e-02  0 
 -7.758874e-03  -1.213154e-02  0 
 -7.750071e-03  -1.425552e-02  0 
 -5.320912e-03  -1.429825e-02  0 
 -5.280997e-03  -1.204564e-02  0 
 -8.241554e-03  -1.467363e-02  0 
 -8.221813e-03  -1.174256e-02  0 
 -5.590161e-03  -1.276264e-02  0 
 -5.588088e-03  -1.362346e-02  0 
 -6.270474e-03  -1.319102e-02  0 
 -7.969823e-03  -1.318793e-02  0 
 -7.044406e-03  -1.411905e-02  0 
 -7.080065e-03  -1.224946e-02  0 
 -6.500927e-03  -1.458976e-02  0 
 -6.907259e-03  -1.347577e-02  0 
 -6.534975e-03  -1.176601e-02  0 
 -6.928327e-03  -1.287613e-02  0 
 -8.281544e-03  -1.391684e-02  0 
 -8.272474e-03  -1.247268e-02  0 
 -7.566594e-03  -1.268176e-02  0 
 -7.555150e-03  -1.368728e-02  0 
 -5.731627e-03  -1.472042e-02  0 
 -5.732109e-03  -1.158173e-02  0 
 -5.914667e-03  -1.216372e-02  0 
 -7.421575e-03  -1.475951e-02  0 
 -7.429319e-03  -1.163565e-02  0 
 -5.889601e-03  -1.419055e-02  0 
 -5.243414e-03  -1.477424e-02  0 
 -5.153532e-03  -1.146215e-02  0 
VECTORS displacement_ITER8 FLOAT
 -8.842418e-03  -1.122434e-02  0 
 -8.906002e-03  -1.527449e-02  0 
 -4.594270e-03  -1.082725e-02  0 
 -4.939428e-03  -1.512002e-02  0 
 -8.855299e-03  -1.187856e-02  0 
 -8.869184e-03  -1.254514e-02  0 
 -8.881976e-03  -1.321493e-02  0 
 -8.891869e-03  -1.389838e-02  0 
 -8.900633e-03  -1.458287e-02  0 
 -8.184876e-03  -1.120723e-02  0 
 -7.516442e-03  -1.118414e-02  0 
 -6.842604e-03  -1.115331e-02  0 
 -6.154194e-03  -1.110594e-02  0 
 -5.434004e-03  -1.101266e-02  0 
 -4.686588e-03  -1.173427e-02  0 
 -4.749735e-03  -1.249345e-02  0 
 -4.784029e-03  -1.320502e-02  0 
 -4.816153e-03  -1.388783e-02  0 
 -4.867118e-03  -1.454077e-02  0 
 -8.214659e-03  -1.526966e-02  0 
 -7.528010e-03  -1.526425e-02  0 
 -6.841819e-03  -1.525645e-02  0 
 -6.162920e-03  -1.524138e-02  0 
 -5.507469e-03  -1.519917e-02  0 
 -7.432445e-03  -1.320189e-02  0 
 -6.367044e-03  -1.389600e-02  0 
 -6.415027e-03  -1.249864e-02  0 
 -7.816060e-03  -1.213854e-02  0 
 -7.806735e-03  -1.428247e-02  0 
 -5.354714e-03  -1.432533e-02  0 
 -5.315311e-03  -1.205250e-02  0 
 -8.302848e-03  -1.470447e-02  0 
 -8.283365e-03  -1.174587e-02  0 
 -5.626854e-03  -1.277526e-02  0 
 -5.624756e-03  -1.364379e-02  0 
 -6.313430e-03  -1.320781e-02  0 
 -8.028744e-03  -1.320497e-02  0 
 -7.094681e-03  -1.414492e-02  0 
 -7.130530e-03  -1.225792e-02  0 
 -6.546593e-03  -1.461976e-02  0 
 -6.956235e-03  -1.349561e-02  0 
 -6.579983e-03  -1.177002e-02  0 
 -6.977346e-03  -1.289040e-02  0 
 -8.343266e-03  -1.394055e-02  0 
 -8.334422e-03  -1.248282e-02  0 
 -7.621760e-03  -1.269415e-02  0 
 -7.610113e-03  -1.370907e-02  0 
 -5.770007e-03  -1.475223e-02  0 
 -5.769982e-03  -1.158482e-02  0 
 -5.954079e-03  -1.217143e-02  0 
 -7.475067e-03  -1.479120e-02  0 
 -7.483506e-03  -1.163796e-02  0 
 -5.929447e-03  -1.421672e-02  0 
 -5.276190e-03  -1.480706e-02  0 
 -5.187301e-03  -1.146540e-02  0 
VECTORS displacement_ITER9 FLOAT
 -8.852707e-03  -1.121959e-02  0 
 -8.916491e-03  -1.523562e-02  0 
 -4.640924e-03  -1.082527e-02  0 
 -4.984286e-03  -1.507940e-02  0 
 -8.865686e-03  -1.186830e-02  0 
 -8.879615e-03  -1.252926e-02  0 
 -8.892444e-03  -1.319339e-02  0 
 -8.902366e-03  -1.387110e-02  0 
 -8.911141e-03  -1.454985e-02  0 
 -8.201083e-03  -1.120282e-02  0 
 -7.537933e-03  -1.117974e-02  0 
 -6.870151e-03  -1.114882e-02  0 
 -6.187572e-03  -1.110129e-02  0 
 -5.473151e-03  -1.100891e-02  0 
 -4.732249e-03  -1.172451e-02  0 
 -4.794684e-03  -1.247744e-02  0 
 -4.828493e-03  -1.318300e-02  0 
 -4.860386e-03  -1.386025e-02  0 
 -4.911372e-03  -1.450694e-02  0 
 -8.231021e-03  -1.523086e-02  0 
 -7.549930e-03  -1.522544e-02  0 
 -6.869687e-03  -1.521784e-02  0 
 -6.196344e-03  -1.520319e-02  0 
 -5.546081e-03  -1.516029e-02  0 
 -7.455125e-03  -1.318016e-02  0 
 -6.398591e-03  -1.386832e-02  0 
 -6.446188e-03  -1.248263e-02  0 
 -7.835318e-03  -1.212591e-02  0 
 -7.826392e-03  -1.425184e-02  0 
 -5.394377e-03  -1.429399e-02  0 
 -5.355581e-03  -1.204007e-02  0 
 -8.318421e-03  -1.467039e-02  0 
 -8.298666e-03  -1.173665e-02  0 
 -5.664473e-03  -1.275682e-02  0 
 -5.662320e-03  -1.361818e-02  0 
 -6.345418e-03  -1.318585e-02  0 
 -8.046426e-03  -1.318333e-02  0 
 -7.120297e-03  -1.411542e-02  0 
 -7.155680e-03  -1.224401e-02  0 
 -6.576868e-03  -1.458630e-02  0 
 -6.982906e-03  -1.347135e-02  0 
 -6.609853e-03  -1.176012e-02  0 
 -7.003808e-03  -1.287117e-02  0 
 -8.358402e-03  -1.391283e-02  0 
 -8.349376e-03  -1.246734e-02  0 
 -7.642788e-03  -1.267669e-02  0 
 -7.631383e-03  -1.368319e-02  0 
 -5.806279e-03  -1.471741e-02  0 
 -5.806407e-03  -1.157636e-02  0 
 -5.989013e-03  -1.215810e-02  0 
 -7.497492e-03  -1.475636e-02  0 
 -7.505470e-03  -1.162957e-02  0 
 -5.964480e-03  -1.418632e-02  0 
 -5.316668e-03  -1.477133e-02  0 
 -5.228637e-03  -1.145784e-02  0 
VECTORS displacement_ITER10 FLOAT
 -8.861805e-03  -1.121247e-02  0 
 -8.925252e-03  -1.522988e-02  0 
 -4.649934e-03  -1.081929e-02  0 
 -4.993309e-03  -1.507261e-02  0 
 -8.874591e-03  -1.186152e-02  0 
 -8.888416e-03  -1.252262e-02  0 
 -8.901182e-03  -1.318692e-02  0 
 -8.911100e-03  -1.386478e-02  0 
 -8.919886e-03  -1.454370e-02  0 
 -8.209619e-03  -1.119582e-02  0 
 -7.546533e-03  -1.117291e-02  0 
 -6.878898e-03  -1.114228e-02  0 
 -6.196139e-03  -1.109499e-02  0 
 -5.481573e-03  -1.100297e-02  0 
 -4.740844e-03  -1.171872e-02  0 
 -4.803086e-03  -1.247166e-02  0 
 -4.836868e-03  -1.317693e-02  0 
 -4.868724e-03  -1.385397e-02  0 
 -4.919639e-03  -1.450073e-02  0 
 -8.239649e-03  -1.522471e-02  0 
 -7.558560e-03  -1.521926e-02  0 
 -6.877754e-03  -1.521178e-02  0 
 -6.204439e-03  -1.519670e-02  0 
 -5.554339e-03  -1.515377e-02  0 
 -7.463542e-03  -1.317373e-02  0 
 -6.406786e-03  -1.386204e-02  0 
 -6.454565e-03  -1.247633e-02  0 
 -7.843872e-03  -1.211925e-02  0 
 -7.834889e-03  -1.424558e-02  0 
 -5.402716e-03  -1.428776e-02  0 
 -5.364069e-03  -1.203402e-02  0 
 -8.326977e-03  -1.466424e-02  0 
 -8.307282e-03  -1.172990e-02  0 
 -5.672799e-03  -1.275071e-02  0 
 -5.670581e-03  -1.361200e-02  0 
 -6.353694e-03  -1.317958e-02  0 
 -8.054961e-03  -1.317688e-02  0 
 -7.128632e-03  -1.410902e-02  0 
 -7.164112e-03  -1.223748e-02  0 
 -6.584916e-03  -1.458004e-02  0 
 -6.991235e-03  -1.346497e-02  0 
 -6.618385e-03  -1.175376e-02  0 
 -7.012172e-03  -1.286476e-02  0 
 -8.366993e-03  -1.390651e-02  0 
 -8.358009e-03  -1.246075e-02  0 
 -7.651269e-03  -1.267018e-02  0 
 -7.639811e-03  -1.367681e-02  0 
 -5.814499e-03  -1.471111e-02  0 
 -5.814836e-03  -1.157024e-02  0 
 -5.997403e-03  -1.215192e-02  0 
 -7.506030e-03  -1.475007e-02  0 
 -7.514005e-03  -1.162279e-02  0 
 -5.972677e-03  -1.418010e-02  0 
 -5.325035e-03  -1.476516e-02  0 
 -5.237250e-03  -1.145173e-02  0 
VECTORS displacement_ITER11 FLOAT
 -8.839795e-03  -1.121901e-02  0 
 -8.903397e-03  -1.520688e-02  0 
 -4.658192e-03  -1.082643e-02  0 
 -5.001425e-03  -1.504789e-02  0 
 -8.852610e-03  -1.186311e-02  0 
 -8.866462e-03  -1.251934e-02  0 
 -8.879257e-03  -1.317874e-02  0 
 -8.889203e-03  -1.385169e-02  0 
 -8.898014e-03  -1.452569e-02  0 
 -8.192573e-03  -1.120227e-02  0 
 -7.534474e-03  -1.117959e-02  0 
 -6.871470e-03  -1.114892e-02  0 
 -6.193753e-03  -1.110174e-02  0 
 -5.484348e-03  -1.100977e-02  0 
 -4.748595e-03  -1.172044e-02  0 
 -4.810630e-03  -1.246820e-02  0 
 -4.844529e-03  -1.316853e-02  0 
 -4.876552e-03  -1.384037e-02  0 
 -4.927430e-03  -1.448197e-02  0 
 -8.222771e-03  -1.520176e-02  0 
 -7.546557e-03  -1.519628e-02  0 
 -6.870622e-03  -1.518883e-02  0 
 -6.202420e-03  -1.517341e-02  0 
 -5.557024e-03  -1.513014e-02  0 
 -7.452105e-03  -1.316547e-02  0 
 -6.402981e-03  -1.384868e-02  0 
 -6.450482e-03  -1.247307e-02  0 
 -7.829592e-03  -1.211881e-02  0 
 -7.820837e-03  -1.422959e-02  0 
 -5.406456e-03  -1.427098e-02  0 
 -5.367759e-03  -1.203373e-02  0 
 -8.309423e-03  -1.464530e-02  0 
 -8.289551e-03  -1.173239e-02  0 
 -5.674378e-03  -1.274550e-02  0 
 -5.672186e-03  -1.360052e-02  0 
 -6.350319e-03  -1.317125e-02  0 
 -8.039210e-03  -1.316866e-02  0 
 -7.119650e-03  -1.409393e-02  0 
 -7.154854e-03  -1.223611e-02  0 
 -6.579855e-03  -1.456150e-02  0 
 -6.983228e-03  -1.345455e-02  0 
 -6.613008e-03  -1.175579e-02  0 
 -7.004038e-03  -1.285873e-02  0 
 -8.349057e-03  -1.389304e-02  0 
 -8.339965e-03  -1.245782e-02  0 
 -7.638434e-03  -1.266563e-02  0 
 -7.627121e-03  -1.366491e-02  0 
 -5.815130e-03  -1.469113e-02  0 
 -5.815364e-03  -1.157326e-02  0 
 -5.996651e-03  -1.215091e-02  0 
 -7.494381e-03  -1.473043e-02  0 
 -7.502165e-03  -1.162608e-02  0 
 -5.972044e-03  -1.416431e-02  0 
 -5.329441e-03  -1.474451e-02  0 
 -5.241806e-03  -1.145529e-02  0 
VECTORS displacement_ITER12 FLOAT
 -8.834482e-03  -1.121454e-02  0 
 -8.898180e-03  -1.519771e-02  0 
 -4.657649e-03  -1.082173e-02  0 
 -5.001518e-03  -1.503797e-02  0 
 -8.847247e-03  -1.185785e-02  0 
 -8.861073e-03  -1.251326e-02  0 
 -8.873859e-03  -1.317183e-02  0 
 -8.883846e-03  -1.384399e-02  0 
 -8.892718e-03  -1.451722e-02  0 
 -8.187981e-03  -1.119780e-02  0 
 -7.530711e-03  -1.117518e-02  0 
 -6.868552e-03  -1.114456e-02  0 
 -6.191696e-03  -1.109738e-02  0 
 -5.483079e-03  -1.100531e-02  0 
 -4.748017e-03  -1.171527e-02  0 
 -4.810253e-03  -1.246215e-02  0 
 -4.844221e-03  -1.316168e-02  0 
 -4.876311e-03  -1.383266e-02  0 
 -4.927405e-03  -1.447330e-02  0 
 -8.218196e-03  -1.519254e-02  0 
 -7.542754e-03  -1.518693e-02  0 
 -6.867744e-03  -1.517929e-02  0 
 -6.200362e-03  -1.516381e-02  0 
 -5.555929e-03  -1.512039e-02  0 
 -7.448449e-03  -1.315858e-02  0 
 -6.400653e-03  -1.384096e-02  0 
 -6.448123e-03  -1.246708e-02  0 
 -7.825473e-03  -1.211323e-02  0 
 -7.816701e-03  -1.422139e-02  0 
 -5.405539e-03  -1.426273e-02  0 
 -5.366688e-03  -1.202828e-02  0 
 -8.304748e-03  -1.463665e-02  0 
 -8.284863e-03  -1.172730e-02  0 
 -5.672994e-03  -1.273922e-02  0 
 -5.670853e-03  -1.359317e-02  0 
 -6.348075e-03  -1.316442e-02  0 
 -8.034835e-03  -1.316175e-02  0 
 -7.116361e-03  -1.408590e-02  0 
 -7.151591e-03  -1.223038e-02  0 
 -6.577297e-03  -1.455279e-02  0 
 -6.980143e-03  -1.344732e-02  0 
 -6.610447e-03  -1.175066e-02  0 
 -7.000956e-03  -1.285224e-02  0 
 -8.344314e-03  -1.388523e-02  0 
 -8.335217e-03  -1.245182e-02  0 
 -7.634559e-03  -1.265937e-02  0 
 -7.623231e-03  -1.365739e-02  0 
 -5.813586e-03  -1.468220e-02  0 
 -5.813796e-03  -1.156828e-02  0 
 -5.994870e-03  -1.214531e-02  0 
 -7.490610e-03  -1.472164e-02  0 
 -7.498442e-03  -1.162111e-02  0 
 -5.970293e-03  -1.415617e-02  0 
 -5.328709e-03  -1.473543e-02  0 
 -5.240848e-03  -1.145032e-02  0 
VECTORS displacement_ITER13 FLOAT
 -8.830515e-03  -1.120895e-02  0 
 -8.894431e-03  -1.519199e-02  0 
 -4.654279e-03  -1.081622e-02  0 
 -4.997698e-03  -1.503223e-02  0 
 -8.843276e-03  -1.185224e-02  0 
 -8.857112e-03  -1.250758e-02  0 
 -8.869918e-03  -1.316608e-02  0 
 -8.879959e-03  -1.383820e-02  0 
 -8.888897e-03  -1.451141e-02  0 
 -8.184058e-03  -1.119227e-02  0 
 -7.526828e-03  -1.116964e-02  0 
 -6.864860e-03  -1.113908e-02  0 
 -6.188061e-03  -1.109182e-02  0 
 -5.479563e-03  -1.099969e-02  0 
 -4.744535e-03  -1.170969e-02  0 
 -4.806809e-03  -1.245643e-02  0 
 -4.840677e-03  -1.315591e-02  0 
 -4.872682e-03  -1.382693e-02  0 
 -4.923818e-03  -1.446752e-02  0 
 -8.214353e-03  -1.518672e-02  0 
 -7.538959e-03  -1.518100e-02  0 
 -6.864045e-03  -1.517327e-02  0 
 -6.196589e-03  -1.515792e-02  0 
 -5.552273e-03  -1.511449e-02  0 
 -7.444643e-03  -1.315279e-02  0 
 -6.396973e-03  -1.383510e-02  0 
 -6.444460e-03  -1.246135e-02  0 
 -7.821597e-03  -1.210758e-02  0 
 -7.812862e-03  -1.421552e-02  0 
 -5.401885e-03  -1.425695e-02  0 
 -5.363154e-03  -1.202264e-02  0 
 -8.300892e-03  -1.463080e-02  0 
 -8.280931e-03  -1.172170e-02  0 
 -5.669412e-03  -1.273345e-02  0 
 -5.667245e-03  -1.358735e-02  0 
 -6.344413e-03  -1.315862e-02  0 
 -8.030971e-03  -1.315597e-02  0 
 -7.112587e-03  -1.408003e-02  0 
 -7.147812e-03  -1.222468e-02  0 
 -6.573600e-03  -1.454685e-02  0 
 -6.976390e-03  -1.344150e-02  0 
 -6.606783e-03  -1.174504e-02  0 
 -6.997203e-03  -1.284647e-02  0 
 -8.340440e-03  -1.387939e-02  0 
 -8.331299e-03  -1.244613e-02  0 
 -7.630725e-03  -1.265363e-02  0 
 -7.619408e-03  -1.365156e-02  0 
 -5.809880e-03  -1.467635e-02  0 
 -5.810232e-03  -1.156265e-02  0 
 -5.991271e-03  -1.213963e-02  0 
 -7.486796e-03  -1.471574e-02  0 
 -7.494583e-03  -1.161551e-02  0 
 -5.966633e-03  -1.415031e-02  0 
 -5.325053e-03  -1.472955e-02  0 
 -5.237346e-03  -1.144470e-02  0 
VECTORS displacement_ITER14 FLOAT
 -8.820130e-03  -1.120756e-02  0 
 -8.884057e-03  -1.518618e-02  0 
 -4.648409e-03  -1.081517e-02  0 
 -4.991799e-03  -1.502599e-02  0 
 -8.832924e-03  -1.185010e-02  0 
 -8.846778e-03  -1.250472e-02  0 
 -8.859595e-03  -1.316250e-02  0 
 -8.869624e-03  -1.383390e-02  0 
 -8.878543e-03  -1.450638e-02  0 
 -8.174483e-03  -1.119089e-02  0 
 -7.517922e-03  -1.116819e-02  0 
 -6.856644e-03  -1.113759e-02  0 
 -6.180552e-03  -1.109037e-02  0 
 -5.472835e-03  -1.099835e-02  0 
 -4.738575e-03  -1.170754e-02  0 
 -4.800801e-03  -1.245353e-02  0 
 -4.834670e-03  -1.315229e-02  0 
 -4.866703e-03  -1.382260e-02  0 
 -4.917920e-03  -1.446237e-02  0 
 -8.204745e-03  -1.518096e-02  0 
 -7.530110e-03  -1.517526e-02  0 
 -6.855892e-03  -1.516756e-02  0 
 -6.189113e-03  -1.515219e-02  0 
 -5.545611e-03  -1.510861e-02  0 
 -7.435851e-03  -1.314921e-02  0 
 -6.389286e-03  -1.383077e-02  0 
 -6.436720e-03  -1.245850e-02  0 
 -7.812401e-03  -1.210513e-02  0 
 -7.803697e-03  -1.421082e-02  0 
 -5.395288e-03  -1.425214e-02  0 
 -5.356544e-03  -1.202021e-02  0 
 -8.291194e-03  -1.462565e-02  0 
 -8.271235e-03  -1.171969e-02  0 
 -5.662497e-03  -1.273030e-02  0 
 -5.660346e-03  -1.358330e-02  0 
 -6.336786e-03  -1.315503e-02  0 
 -8.021549e-03  -1.315239e-02  0 
 -7.104155e-03  -1.407544e-02  0 
 -7.139335e-03  -1.222210e-02  0 
 -6.565728e-03  -1.454175e-02  0 
 -6.968096e-03  -1.343760e-02  0 
 -6.598854e-03  -1.174294e-02  0 
 -6.988887e-03  -1.284322e-02  0 
 -8.330697e-03  -1.387505e-02  0 
 -8.321549e-03  -1.244331e-02  0 
 -7.621733e-03  -1.265059e-02  0 
 -7.610435e-03  -1.364744e-02  0 
 -5.802823e-03  -1.467108e-02  0 
 -5.803139e-03  -1.156071e-02  0 
 -5.984003e-03  -1.213710e-02  0 
 -7.477998e-03  -1.471050e-02  0 
 -7.485738e-03  -1.161359e-02  0 
 -5.959404e-03  -1.414563e-02  0 
 -5.318581e-03  -1.472406e-02  0 
 -5.230845e-03  -1.144289e-02  0 
VECTORS displacement_ITER15 FLOAT
 -8.832019e-03  -1.120331e-02  0 
 -8.895950e-03  -1.518990e-02  0 
 -4.652386e-03  -1.081087e-02  0 
 -4.995463e-03  -1.503012e-02  0 
 -8.844810e-03  -1.184716e-02  0 
 -8.858668e-03  -1.250309e-02  0 
 -8.871488e-03  -1.316220e-02  0 
 -8.881516e-03  -1.383493e-02  0 
 -8.890435e-03  -1.450875e-02  0 
 -8.185008e-03  -1.118661e-02  0 
 -7.527169e-03  -1.116385e-02  0 
 -6.864534e-03  -1.113324e-02  0 
 -6.187088e-03  -1.108605e-02  0 
 -5.478034e-03  -1.099402e-02  0 
 -4.742518e-03  -1.170451e-02  0 
 -4.804678e-03  -1.245192e-02  0 
 -4.838555e-03  -1.315200e-02  0 