# vtk DataFile Version 3.1
this is an vtk file created by FEMAC
ASCII
DATASET UNSTRUCTURED_GRID
POINTS 55 FLOAT
0.000000 5.000000 0.000000
1.000000 5.000000 0.000000
0.000000 6.000000 0.000000
1.000000 6.000000 0.000000
0.166667 5.000000 0.000000
0.333333 5.000000 0.000000
0.500000 5.000000 0.000000
0.666667 5.000000 0.000000
0.833333 5.000000 0.000000
0.166667 6.000000 0.000000
0.333333 6.000000 0.000000
0.500000 6.000000 0.000000
0.666667 6.000000 0.000000
0.833333 6.000000 0.000000
0.000000 5.166667 0.000000
0.000000 5.333333 0.000000
0.000000 5.500000 0.000000
0.000000 5.666667 0.000000
0.000000 5.833333 0.000000
1.000000 5.166667 0.000000
1.000000 5.333333 0.000000
1.000000 5.500000 0.000000
1.000000 5.666667 0.000000
1.000000 5.833333 0.000000
0.357609 5.499028 0.000000
0.617149 5.666076 0.000000
0.608420 5.328744 0.000000
0.265181 5.762188 0.000000
0.261987 5.236435 0.000000
0.869358 5.770672 0.000000
0.867634 5.227817 0.000000
0.144877 5.863709 0.000000
0.143875 5.135859 0.000000
0.797424 5.393692 0.000000
0.799754 5.601780 0.000000
0.631909 5.497673 0.000000
0.210492 5.499636 0.000000
0.438608 5.728690 0.000000
0.432863 5.268597 0.000000
0.571692 5.844620 0.000000
0.473901 5.569780 0.000000
0.567544 5.153356 0.000000
0.470333 5.422752 0.000000
0.134180 5.678891 0.000000
0.133379 5.320660 0.000000
0.311111 5.374518 0.000000
0.313329 5.623035 0.000000
0.763647 5.879362 0.000000
0.761895 5.119542 0.000000
0.719527 5.252744 0.000000
0.345766 5.885601 0.000000
0.343753 5.113464 0.000000
0.724164 5.744214 0.000000
0.893268 5.896674 0.000000
0.892572 5.102805 0.000000
CELLS 84 336 
3 31  9  2
3 18 31  2
3 4 32  0
3 32 14  0
3 21 34 33
3 35 26 33
3 40 25 37
3 25 40 35
3 26 42 38
3 42 26 35
3 43 27 31
3 28 44 32
3 45 28 38
3 27 46 37
3 12 47 13
3 47 12 39
3 48  7  8
3 7 48 41
3 26 49 33
3 49 30 33
3 49 26 41
3 27 50 31
3 51 28 32
3 52 25 34
3 29 52 34
3 25 52 39
3 35 34 25
3 33 34 35
3 42 40 24
3 35 40 42
3 46 36 24
3 36 45 24
3 40 46 24
3 40 37 46
3 45 42 24
3 38 42 45
3 47 52 29
3 47 39 52
3 49 48 30
3 41 48 49
3 21 22 34
3 22 29 34
3 23 29 22
3 50 11 10
3 50 27 37
3 6 51  5
3 38 28 51
3 16 43 17
3 16 36 43
3 46 27 43
3 43 36 46
3 44 16 15
3 36 16 44
3 28 45 44
3 36 44 45
3 11 39 12
3 50 39 11
3 25 39 37
3 50 37 39
3 41  6  7
3 6 41 51
3 38 41 26
3 38 51 41
3 20 21 33
3 30 20 33
3 30 19 20
3 15 14 44
3 14 32 44
3 4  5 51
3 32  4 51
3 18 17 43
3 31 18 43
3 10  9 50
3 9 31 50
3 13 53  3
3 53 23  3
3 53 13 47
3 54  8  1
3 19 54  1
3 8 54 48
3 53 29 23
3 47 29 53
3 30 54 19
3 30 48 54
CELL_TYPES 84
5 5 5 5 5 5 5 5 5 5 5 5 5 5 5 5 5 5 5 5 5 5 5 5 5 5 5 5 5 5 5 5 5 5 5 5 5 5 5 5 5 5 5 5 5 5 5 5 5 5 5 5 5 5 5 5 5 5 5 5 5 5 5 5 5 5 5 5 5 5 5 5 5 5 5 5 5 5 5 5 5 5 5 5 
POINT_DATA 55
VECTORS displacement_ITER1 FLOAT
 3.560343e-21  3.214343e-22  0 
 7.287131e-03  -5.255897e-03  0 
 0  0  0 
 8.504608e-03  -1.145453e-02  0 
 -6.071398e-05  -9.232234e-04  0 
 1.770014e-04  -1.632739e-03  0 
 2.834650e-04  -1.995282e-03  0 
 3.376394e-04  -1.666363e-03  0 
 1.256551e-03  -1.280278e-03  0 
 2.962768e-03  -4.017871e-03  0 
 4.678628e-03  -6.294158e-03  0 
 5.918578e-03  -7.959028e-03  0 
 6.824217e-03  -8.790798e-03  0 
 7.744841e-03  -9.432675e-03  0 
 0  0  0 
 0  0  0 
 0  0  0 
 0  0  0 
 0  0  0 
 6.050117e-03  -6.681583e-03  0 
 7.562104e-03  -6.537076e-03  0 
 8.754663e-03  -6.139786e-03  0 
 9.165269e-03  -5.237830e-03  0 
 1.019470e-02  -6.422773e-03  0 
 2.417763e-03  -2.406293e-03  0 
 5.598281e-03  -5.942772e-03  0 
 4.012159e-03  -3.155270e-03  0 
 2.071604e-03  -3.109140e-03  0 
 1.021733e-03  -7.841944e-04  0 
 8.277319e-03  -6.833780e-03  0 
 5.684519e-03  -5.458991e-03  0 
 1.235692e-03  -1.979415e-03  0 
 4.306719e-04  -4.072672e-04  0 
 6.513313e-03  -5.147271e-03  0 
 7.602468e-03  -5.991619e-03  0 
 5.413654e-03  -4.519834e-03  0 
 1.180423e-03  -1.290438e-03  0 
 3.783599e-03  -5.142424e-03  0 
 1.971071e-03  -1.510553e-03  0 
 5.525973e-03  -7.406199e-03  0 
 3.795760e-03  -3.992790e-03  0 
 1.828505e-03  -1.798968e-03  0 
 3.274668e-03  -2.713584e-03  0 
 7.653344e-04  -1.203225e-03  0 
 5.355495e-04  -4.329518e-04  0 
 1.655726e-03  -1.307438e-03  0 
 2.179254e-03  -2.837984e-03  0 
 6.899203e-03  -8.421254e-03  0 
 2.993267e-03  -2.944256e-03  0 
 4.365127e-03  -3.612206e-03  0 
 3.790852e-03  -5.489019e-03  0 
 7.799080e-04  -1.200600e-03  0 
 6.851805e-03  -7.113525e-03  0 
 7.851509e-03  -8.942396e-03  0 
 4.895554e-03  -5.493116e-03  0 
VECTORS displacement_ITER2 FLOAT
 2.207246e-21  1.123830e-22  0 
 4.525528e-03  -4.343238e-03  0 
 0  0  0 
 6.912667e-03  -6.935567e-03  0 
 8.368021e-05  -7.820052e-04  0 
 4.843711e-04  -7.860883e-04  0 
 5.387207e-04  -1.065483e-03  0 
 6.820676e-04  -1.242754e-03  0 
 1.318598e-03  -1.458017e-03  0 
 2.259199e-03  -3.044484e-03  0 
 3.616635e-03  -4.747107e-03  0 
 4.651144e-03  -5.987281e-03  0 
 5.515669e-03  -6.680067e-03  0 
 6.350555e-03  -7.036661e-03  0 
 0  0  0 
 0  0  0 
 0  0  0 
 0  0  0 
 0  0  0 
 4.697263e-03  -4.627058e-03  0 
 5.452795e-03  -4.536866e-03  0 
 5.828373e-03  -4.776119e-03  0 
 6.693225e-03  -4.534128e-03  0 
 8.341303e-03  -4.971033e-03  0 
 1.841872e-03  -1.744033e-03  0 
 4.248694e-03  -4.148698e-03  0 
 2.919728e-03  -2.435710e-03  0 
 1.589348e-03  -2.278785e-03  0 
 7.429215e-04  -5.729026e-04  0 
 6.661531e-03  -4.960701e-03  0 
 4.285435e-03  -3.911405e-03  0 
 9.471835e-04  -1.480042e-03  0 
 3.409817e-04  -3.794308e-04  0 
 4.498757e-03  -3.923954e-03  0 
 5.416714e-03  -4.314271e-03  0 
 3.897642e-03  -3.292924e-03  0 
 9.191279e-04  -9.511579e-04  0 
 2.911764e-03  -3.675164e-03  0 
 1.507454e-03  -1.179847e-03  0 
 4.402342e-03  -5.391970e-03  0 
 2.860477e-03  -2.827163e-03  0 
 1.590887e-03  -1.329424e-03  0 
 2.422092e-03  -2.021425e-03  0 
 5.918259e-04  -8.934093e-04  0 
 4.036368e-04  -3.255103e-04  0 
 1.260178e-03  -9.923612e-04  0 
 1.673316e-03  -2.043007e-03  0 
 5.789191e-03  -6.161659e-03  0 
 2.507285e-03  -2.259516e-03  0 
 3.278565e-03  -2.773895e-03  0 
 2.933439e-03  -4.080967e-03  0 
 6.620536e-04  -7.059609e-04  0 
 5.395686e-03  -5.029001e-03  0 
 6.813594e-03  -6.419079e-03  0 
 3.726467e-03  -3.836841e-03  0 
VECTORS displacement_ITER3 FLOAT
 3.350083e-22  -1.252489e-22  0 
 2.784830e-03  -3.315802e-03  0 
 0  0  0 
 7.254654e-03  -4.403067e-03  0 
 5.434468e-04  -2.649850e-04  0 
 5.605201e-04  -7.324253e-04  0 
 5.729971e-04  -9.214919e-04  0 
 7.235557e-04  -1.134257e-03  0 
 1.316711e-03  -1.487641e-03  0 
 1.958116e-03  -2.620407e-03  0 
 3.153651e-03  -4.023319e-03  0 
 4.091062e-03  -4.996535e-03  0 
 4.937810e-03  -5.414468e-03  0 
 5.801779e-03  -5.248511e-03  0 
 0  0  0 
 0  0  0 
 0  0  0 
 0  0  0 
 0  0  0 
 3.872279e-03  -3.388502e-03  0 
 4.395748e-03  -3.653235e-03  0 
 5.372443e-03  -3.736697e-03  0 
 6.102924e-03  -3.945218e-03  0 
 6.590754e-03  -3.906009e-03  0 
 1.631603e-03  -1.318830e-03  0 
 3.813032e-03  -3.247600e-03  0 
 2.532334e-03  -1.795299e-03  0 
 1.423411e-03  -1.862260e-03  0 
 7.362130e-04  -4.250351e-04  0 
 5.852185e-03  -4.052712e-03  0 
 3.403496e-03  -2.985038e-03  0 
 8.356955e-04  -1.250868e-03  0 
 3.680146e-04  -2.591448e-04  0 
 3.866866e-03  -2.865355e-03  0 
 4.800468e-03  -3.451867e-03  0 
 3.358882e-03  -2.492215e-03  0 
 8.338723e-04  -7.319702e-04  0 
 2.646255e-03  -2.910383e-03  0 
 1.407351e-03  -8.509875e-04  0 
 4.034473e-03  -4.319868e-03  0 
 2.520041e-03  -2.152743e-03  0 
 1.461906e-03  -1.058437e-03  0 
 2.113894e-03  -1.505038e-03  0 
 5.304381e-04  -7.243639e-04  0 
 3.854005e-04  -2.555481e-04  0 
 1.142365e-03  -7.482020e-04  0 
 1.501502e-03  -1.582896e-03  0 
 5.399437e-03  -4.700647e-03  0 
 2.078795e-03  -1.862255e-03  0 
 2.748039e-03  -2.082058e-03  0 
 2.603761e-03  -3.422462e-03  0 
 7.817860e-04  -4.723777e-04  0 
 4.838098e-03  -3.939015e-03  0 
 6.234679e-03  -4.333145e-03  0 
 2.885744e-03  -2.706855e-03  0 
VECTORS displacement_ITER4 FLOAT
 -7.446426e-22  -3.913413e-22  0 
 2.033426e-03  -2.616808e-03  0 
 0  0  0 
 7.230407e-03  -3.271895e-03  0 
 4.542025e-04  -1.978111e-04  0 
 4.902912e-04  -5.334439e-04  0 
 6.151504e-04  -8.149403e-04  0 
 7.982228e-04  -1.091255e-03  0 
 1.338080e-03  -1.516580e-03  0 
 1.818100e-03  -2.423206e-03  0 
 2.939273e-03  -3.691525e-03  0 
 3.832867e-03  -4.547507e-03  0 
 4.673167e-03  -4.861298e-03  0 
 5.569234e-03  -4.561830e-03  0 
 0  0  0 
 0  0  0 
 0  0  0 
 0  0  0 
 0  0  0 
 3.389060e-03  -2.842948e-03  0 
 4.031914e-03  -3.281349e-03  0 
 5.073574e-03  -3.333887e-03  0 
 5.665417e-03  -3.603953e-03  0 
 6.031807e-03  -3.516311e-03  0 
 1.525797e-03  -1.127097e-03  0 
 3.599959e-03  -2.842681e-03  0 
 2.312226e-03  -1.523880e-03  0 
 1.343169e-03  -1.672695e-03  0 
 6.923243e-04  -3.496614e-04  0 
 5.474797e-03  -3.567670e-03  0 
 2.983981e-03  -2.498825e-03  0 
 7.829498e-04  -1.144997e-03  0 
 3.372597e-04  -1.982750e-04  0 
 3.561492e-03  -2.449089e-03  0 
 4.474849e-03  -3.079081e-03  0 
 3.096811e-03  -2.163787e-03  0 
 7.911121e-04  -6.295095e-04  0 
 2.514699e-03  -2.568483e-03  0 
 1.323822e-03  -7.390743e-04  0 
 3.850324e-03  -3.839533e-03  0 
 2.359123e-03  -1.857600e-03  0 
 1.374425e-03  -9.554390e-04  0 
 1.947557e-03  -1.285917e-03  0 
 5.001574e-04  -6.466879e-04  0 
 3.645272e-04  -2.070633e-04  0 
 1.075234e-03  -6.413298e-04  0 
 1.418357e-03  -1.375838e-03  0 
 5.206745e-03  -4.066647e-03  0 
 1.863967e-03  -1.654662e-03  0 
 2.465920e-03  -1.771015e-03  0 
 2.447244e-03  -3.120363e-03  0 
 7.321008e-04  -3.823843e-04  0 
 4.571827e-03  -3.442938e-03  0 
 6.045012e-03  -3.546040e-03  0 
 2.421126e-03  -2.168408e-03  0 
VECTORS displacement_ITER5 FLOAT
 -1.022422e-21  -5.074641e-22  0 
 1.876571e-03  -2.355158e-03  0 
 0  0  0 
 6.866036e-03  -2.926453e-03  0 
 2.923548e-04  -4.157747e-04  0 
 5.633142e-04  -4.691791e-04  0 
 7.953145e-04  -7.331594e-04  0 
 9.942644e-04  -9.927103e-04  0 
 1.346824e-03  -1.512766e-03  0 
 1.745299e-03  -2.325911e-03  0 
 2.828645e-03  -3.544784e-03  0 
 3.699582e-03  -4.369614e-03  0 
 4.532759e-03  -4.702432e-03  0 
 5.422122e-03  -4.469762e-03  0 
 0  0  0 
 0  0  0 
 0  0  0 
 0  0  0 
 0  0  0 
 3.160889e-03  -2.741606e-03  0 
 3.939577e-03  -3.062511e-03  0 
 4.662623e-03  -3.254488e-03  0 
 5.312495e-03  -3.479401e-03  0 
 6.059262e-03  -3.456462e-03  0 
 1.449454e-03  -1.093047e-03  0 
 3.436749e-03  -2.688728e-03  0 
 2.160851e-03  -1.484443e-03  0 
 1.285798e-03  -1.602079e-03  0 
 6.544411e-04  -4.047749e-04  0 
 5.314483e-03  -3.353124e-03  0 
 2.881179e-03  -2.276344e-03  0 
 7.507932e-04  -1.098373e-03  0 
 3.217709e-04  -2.649415e-04  0 
 3.337192e-03  -2.394236e-03  0 
 4.210967e-03  -2.921244e-03  0 
 2.925156e-03  -2.085954e-03  0 
 7.557398e-04  -6.195440e-04  0 
 2.404747e-03  -2.449795e-03  0 
 1.241769e-03  -7.837779e-04  0 
 3.708443e-03  -3.671229e-03  0 
 2.248194e-03  -1.778101e-03  0 
 1.353062e-03  -9.272761e-04  0 
 1.831536e-03  -1.258921e-03  0 
 4.799781e-04  -6.239890e-04  0 
 3.540765e-04  -2.299074e-04  0 
 1.021060e-03  -6.567544e-04  0 
 1.354351e-03  -1.321746e-03  0 
 5.065672e-03  -3.912557e-03  0 
 1.845448e-03  -1.494321e-03  0 
 2.342947e-03  -1.677621e-03  0 
 2.350641e-03  -2.989097e-03  0 
 6.902179e-04  -4.703965e-04  0 
 4.404598e-03  -3.259601e-03  0 
 5.976239e-03  -3.485559e-03  0 
 2.256446e-03  -2.023496e-03  0 
VECTORS displacement_ITER6 FLOAT
 -8.829313e-22  -6.133496e-22  0 
 1.801211e-03  -2.139253e-03  0 
 0  0  0 
 6.597057e-03  -3.172837e-03  0 
 2.563888e-04  -3.428610e-04  0 
 4.620256e-04  -5.256625e-04  0 
 7.081998e-04  -7.689995e-04  0 
 9.278552e-04  -1.024736e-03  0 
 1.231901e-03  -1.470923e-03  0 
 1.712443e-03  -2.294824e-03  0 
 2.762600e-03  -3.502889e-03  0 
 3.596219e-03  -4.321893e-03  0 
 4.379326e-03  -4.644375e-03  0 
 5.226181e-03  -4.451269e-03  0 
 0  0  0 
 0  0  0 
 0  0  0 
 0  0  0 
 0  0  0 
 3.021398e-03  -2.784109e-03  0 
 3.949251e-03  -3.089018e-03  0 
 4.610628e-03  -3.243070e-03  0 
 5.206159e-03  -3.323218e-03  0 
 5.895259e-03  -3.386558e-03  0 
 1.410353e-03  -1.103136e-03  0 
 3.357815e-03  -2.718993e-03  0 
 2.106540e-03  -1.472725e-03  0 
 1.252221e-03  -1.603868e-03  0 
 6.354871e-04  -4.034100e-04  0 
 5.147819e-03  -3.324524e-03  0 
 2.803452e-03  -2.238350e-03  0 
 7.329135e-04  -1.091908e-03  0 
 3.002679e-04  -2.320029e-04  0 
 3.309089e-03  -2.400803e-03  0 
 4.162081e-03  -2.917863e-03  0 
 2.889584e-03  -2.096428e-03  0 
 7.319030e-04  -6.264532e-04  0 
 2.341285e-03  -2.467598e-03  0 
 1.202785e-03  -7.874446e-04  0 
 3.590882e-03  -3.669640e-03  0 
 2.199094e-03  -1.801430e-03  0 
 1.281363e-03  -9.454632e-04  0 
 1.790060e-03  -1.259321e-03  0 
 4.653627e-04  -6.263340e-04  0 
 3.403474e-04  -2.272182e-04  0 
 9.929666e-04  -6.600304e-04  0 
 1.316962e-03  -1.335332e-03  0 
 4.864747e-03  -3.908589e-03  0 
 1.731434e-03  -1.461124e-03  0 
 2.266639e-03  -1.654908e-03  0 
 2.291412e-03  -2.969807e-03  0 
 6.465650e-04  -4.931058e-04  0 
 4.278227e-03  -3.278104e-03  0 
 5.724841e-03  -3.530304e-03  0 
 2.101410e-03  -1.990619e-03  0 
VECTORS displacement_ITER7 FLOAT
 -6.230041e-22  -6.489704e-22  0 
 1.737305e-03  -2.025191e-03  0 
 0  0  0 
 6.429427e-03  -3.423985e-03  0 
 2.718889e-04  -3.000501e-04  0 
 4.484568e-04  -5.882824e-04  0 
 6.751955e-04  -7.715817e-04  0 
 9.034958e-04  -1.024198e-03  0 
 1.198118e-03  -1.415535e-03  0 
 1.697358e-03  -2.282150e-03  0 
 2.731138e-03  -3.491310e-03  0 
 3.544691e-03  -4.317047e-03  0 
 4.296480e-03  -4.646896e-03  0 
 5.099191e-03  -4.467385e-03  0 
 0  0  0 
 0  0  0 
 0  0  0 
 0  0  0 
 0  0  0 
 3.028012e-03  -2.789474e-03  0 
 3.910983e-03  -3.108066e-03  0 
 4.587954e-03  -3.235498e-03  0 
 5.232869e-03  -3.270837e-03  0 
 5.775300e-03  -3.349067e-03  0 
 1.386692e-03  -1.119106e-03  0 
 3.312225e-03  -2.755907e-03  0 
 2.084497e-03  -1.468470e-03  0 
 1.231639e-03  -1.612052e-03  0 
 6.309362e-04  -4.129100e-04  0 
 5.075387e-03  -3.370715e-03  0 
 2.777837e-03  -2.239364e-03  0 
 7.229269e-04  -1.091011e-03  0 
 2.957726e-04  -2.240994e-04  0 
 3.290375e-03  -2.397747e-03  0 
 4.154106e-03  -2.915625e-03  0 
 2.874214e-03  -2.099578e-03  0 
 7.162932e-04  -6.382305e-04  0 
 2.301080e-03  -2.494225e-03  0 
 1.185500e-03  -7.905283e-04  0 
 3.522236e-03  -3.697526e-03  0 
 2.167406e-03  -1.825739e-03  0 
 1.254603e-03  -9.443575e-04  0 
 1.771338e-03  -1.264963e-03  0 
 4.561664e-04  -6.310241e-04  0 
 3.344874e-04  -2.344248e-04  0 
 9.779426e-04  -6.691237e-04  0 
 1.291716e-03  -1.353338e-03  0 
 4.745864e-03  -3.957461e-03  0 
 1.685624e-03  -1.436192e-03  0 
 2.239633e-03  -1.642904e-03  0 
 2.259314e-03  -2.969969e-03  0 
 6.399430e-04  -5.136388e-04  0 
 4.210599e-03  -3.322671e-03  0 
 5.545967e-03  -3.595869e-03  0 
 2.058186e-03  -1.934165e-03  0 
VECTORS displacement_ITER8 FLOAT
 -2.207282e-22  -6.300927e-22  0 
 1.723143e-03  -1.980106e-03  0 
 0  0  0 
 6.323411e-03  -3.481041e-03  0 
 2.506400e-04  -3.227457e-04  0 
 4.857997e-04  -5.485565e-04  0 
 7.025237e-04  -7.066528e-04  0 
 9.269799e-04  -9.805949e-04  0 
 1.231746e-03  -1.407125e-03  0 
 1.691954e-03  -2.274897e-03  0 
 2.723453e-03  -3.486464e-03  0 
 3.534820e-03  -4.320720e-03  0 
 4.280969e-03  -4.669928e-03  0 
 5.062198e-03  -4.508460e-03  0 
 0  0  0 
 0  0  0 
 0  0  0 
 0  0  0 
 0  0  0 
 3.072535e-03  -2.776081e-03  0 
 3.869305e-03  -3.092584e-03  0 
 4.548801e-03  -3.250020e-03  0 
 5.223535e-03  -3.307376e-03  0 
 5.779784e-03  -3.380200e-03  0 
 1.373867e-03  -1.124476e-03  0 
 3.287615e-03  -2.764679e-03  0 
 2.074646e-03  -1.469299e-03  0 
 1.221955e-03  -1.610920e-03  0 
 6.219934e-04  -4.132550e-04  0 
 5.066116e-03  -3.405639e-03  0 
 2.786047e-03  -2.238595e-03  0 
 7.187683e-04  -1.087786e-03  0 
 2.920735e-04  -2.298854e-04  0 
 3.261311e-03  -2.396495e-03  0 
 4.128870e-03  -2.921401e-03  0 
 2.851700e-03  -2.099889e-03  0 
 7.081936e-04  -6.415762e-04  0 
 2.281256e-03  -2.499412e-03  0 
 1.175717e-03  -7.890395e-04  0 
 3.499663e-03  -3.711568e-03  0 
 2.147661e-03  -1.830544e-03  0 
 1.264135e-03  -9.159400e-04  0 
 1.758237e-03  -1.269757e-03  0 
 4.517572e-04  -6.306948e-04  0 
 3.297082e-04  -2.366444e-04  0 
 9.677307e-04  -6.723292e-04  0 
 1.278389e-03  -1.357114e-03  0 
 4.717781e-03  -4.000505e-03  0 
 1.703613e-03  -1.419298e-03  0 
 2.243268e-03  -1.637702e-03  0 
 2.248026e-03  -2.966090e-03  0 
 6.363559e-04  -5.016738e-04  0 
 4.188956e-03  -3.344541e-03  0 
 5.509949e-03  -3.662968e-03  0 
 2.074975e-03  -1.897651e-03  0 
VECTORS displacement_ITER9 FLOAT
 1.376669e-22  -5.933306e-22  0 
 1.688573e-03  -1.947322e-03  0 
 0  0  0 
 6.270188e-03  -3.466376e-03  0 
 2.549608e-04  -3.246719e-04  0 
 5.071649e-04  -5.284545e-04  0 
 7.162811e-04  -7.009081e-04  0 
 9.194574e-04  -9.517889e-04  0 
 1.216794e-03  -1.407428e-03  0 
 1.688794e-03  -2.270416e-03  0 
 2.718564e-03  -3.481298e-03  0 
 3.528302e-03  -4.316998e-03  0 
 4.271651e-03  -4.670365e-03  0 
 5.048607e-03  -4.521470e-03  0 
 0  0  0 
 0  0  0 
 0  0  0 
 0  0  0 
 0  0  0 
 3.070212e-03  -2.784625e-03  0 
 3.880382e-03  -3.077082e-03  0 
 4.546057e-03  -3.254917e-03  0 
 5.169642e-03  -3.327608e-03  0 
 5.799267e-03  -3.391164e-03  0 
 1.366932e-03  -1.122850e-03  0 
 3.277348e-03  -2.763987e-03  0 
 2.069489e-03  -1.463235e-03  0 
 1.218000e-03  -1.608309e-03  0 
 6.192491e-04  -4.134780e-04  0 
 5.054989e-03  -3.398275e-03  0 
 2.792200e-03  -2.222386e-03  0 
 7.168969e-04  -1.085437e-03  0 
 2.928464e-04  -2.330323e-04  0 
 3.258021e-03  -2.394896e-03  0 
 4.106872e-03  -2.935264e-03  0 
 2.838666e-03  -2.104952e-03  0 
 7.035078e-04  -6.399812e-04  0 
 2.273609e-03  -2.497747e-03  0 
 1.169227e-03  -7.797115e-04  0 
 3.490441e-03  -3.711200e-03  0 
 2.139730e-03  -1.829483e-03  0 
 1.260355e-03  -8.965142e-04  0 
 1.748746e-03  -1.268601e-03  0 
 4.497172e-04  -6.289069e-04  0 
 3.276672e-04  -2.381975e-04  0 
 9.601163e-04  -6.702699e-04  0 
 1.272898e-03  -1.355605e-03  0 
 4.705757e-03  -4.005213e-03  0 
 1.699491e-03  -1.399337e-03  0 
 2.242810e-03  -1.625605e-03  0 
 2.242804e-03  -2.961769e-03  0 
 6.432507e-04  -4.937444e-04  0 
 4.179369e-03  -3.346109e-03  0 
 5.506735e-03  -3.684132e-03  0 
 2.055631e-03  -1.881963e-03  0 
VECTORS displacement_ITER10 FLOAT
 3.667187e-22  -5.462681e-22  0 
 1.661369e-03  -1.981156e-03  0 
 0  0  0 
 6.291682e-03  -3.460248e-03  0 
 2.808024e-04  -3.169970e-04  0 
 5.022720e-04  -5.648314e-04  0 
 7.077614e-04  -7.496572e-04  0 
 9.055334e-04  -9.547245e-04  0 
 1.198245e-03  -1.373536e-03  0 
 1.687724e-03  -2.269905e-03  0 
 2.715527e-03  -3.478596e-03  0 
 3.522989e-03  -4.310522e-03  0 
 4.264181e-03  -4.655053e-03  0 
 5.043877e-03  -4.496474e-03  0 
 0  0  0 
 0  0  0 
 0  0  0 
 0  0  0 
 0  0  0 
 3.066653e-03  -2.775451e-03  0 
 3.887840e-03  -3.070077e-03  0 
 4.567824e-03  -3.232387e-03  0 
 5.168347e-03  -3.307633e-03  0 
 5.779824e-03  -3.358313e-03  0 
 1.367615e-03  -1.121444e-03  0 
 3.280106e-03  -2.759578e-03  0 
 2.070290e-03  -1.457605e-03  0 
 1.218492e-03  -1.608044e-03  0 
 6.251464e-04  -4.206978e-04  0 
 5.049152e-03  -3.381141e-03  0 
 2.789611e-03  -2.213613e-03  0 
 7.167931e-04  -1.085640e-03  0 
 2.981366e-04  -2.375984e-04  0 
 3.267850e-03  -2.383324e-03  0 
 4.111763e-03  -2.929642e-03  0 
 2.842110e-03  -2.101349e-03  0 
 7.038239e-04  -6.401166e-04  0 
 2.275180e-03  -2.495542e-03  0 
 1.170474e-03  -7.783746e-04  0 
 3.489512e-03  -3.704271e-03  0 
 2.141847e-03  -1.827101e-03  0 
 1.250167e-03  -9.055538e-04  0 
 1.749582e-03  -1.265404e-03  0 
 4.500544e-04  -6.289657e-04  0 
 3.302473e-04  -2.424163e-04  0 
 9.609914e-04  -6.708666e-04  0 
 1.273914e-03  -1.354717e-03  0 
 4.700630e-03  -3.985997e-03  0 
 1.687509e-03  -1.387186e-03  0 
 2.238386e-03  -1.617346e-03  0 
 2.241811e-03  -2.960541e-03  0 
 6.531844e-04  -5.085436e-04  0 
 4.178991e-03  -3.336391e-03  0 
 5.496568e-03  -3.652516e-03  0 
 2.053809e-03  -1.869785e-03  0 
VECTORS displacement_ITER11 FLOAT
 5.487852e-22  -4.956543e-22  0 
 1.657211e-03  -2.055062e-03  0 
 0  0  0 
 6.320042e-03  -3.419878e-03  0 
 2.717329e-04  -3.200694e-04  0 
 4.879614e-04  -5.395777e-04  0 
 6.912169e-04  -7.318039e-04  0 
 9.019945e-04  -9.519156e-04  0 
 1.211864e-03  -1.355847e-03  0 
 1.686874e-03  -2.267787e-03  0 
 2.715131e-03  -3.473489e-03  0 
 3.524076e-03  -4.301881e-03  0 
 4.268982e-03  -4.642839e-03  0 
 5.052655e-03  -4.473833e-03  0 
 0  0  0 
 0  0  0 
 0  0  0 
 0  0  0 
 0  0  0 
 3.076799e-03  -2.761857e-03  0 
 3.871462e-03  -3.071075e-03  0 
 4.555759e-03  -3.221479e-03  0 
 5.178678e-03  -3.302906e-03  0 
 5.773678e-03  -3.341186e-03  0 
 1.371334e-03  -1.114256e-03  0 
 3.283450e-03  -2.745126e-03  0 
 2.071908e-03  -1.454977e-03  0 
 1.219919e-03  -1.603500e-03  0 
 6.209832e-04  -4.082315e-04  0 
 5.055812e-03  -3.368991e-03  0 
 2.787296e-03  -2.220799e-03  0 
 7.171336e-04  -1.083893e-03  0 
 2.949787e-04  -2.326752e-04  0 
 3.263239e-03  -2.378846e-03  0 
 4.111550e-03  -2.913252e-03  0 
 2.843986e-03  -2.091178e-03  0 
 7.061980e-04  -6.350249e-04  0 
 2.278519e-03  -2.485134e-03  0 
 1.171854e-03  -7.719414e-04  0 
 3.494687e-03  -3.690712e-03  0 
 2.145472e-03  -1.817226e-03  0 
 1.250188e-03  -9.034696e-04  0 
 1.753287e-03  -1.258483e-03  0 
 4.508493e-04  -6.269345e-04  0 
 3.290771e-04  -2.354335e-04  0 
 9.633032e-04  -6.632564e-04  0 
 1.276973e-03  -1.348091e-03  0 
 4.711512e-03  -3.967008e-03  0 
 1.693045e-03  -1.391748e-03  0 
 2.238863e-03  -1.619709e-03  0 
 2.242841e-03  -2.954657e-03  0 
 6.427414e-04  -4.894528e-04  0 
 4.183963e-03  -3.319099e-03  0 
 5.507509e-03  -3.621280e-03  0 
 2.077589e-03  -1.870716e-03  0 
VECTORS displacement_ITER12 FLOAT
 6.114389e-22  -4.634997e-22  0 
 1.669124e-03  -2.067837e-03  0 
 0  0  0 
 6.345395e-03  -3.383373e-03  0 
 2.668708e-04  -3.172936e-04  0 
 4.762655e-04  -5.246936e-04  0 
 6.764843e-04  -7.156096e-04  0 
 8.919482e-04  -9.554076e-04  0 
 1.206662e-03  -1.365125e-03  0 
 1.686751e-03  -2.266899e-03  0 
 2.715436e-03  -3.470221e-03  0 
 3.525496e-03  -4.295148e-03  0 
 4.273409e-03  -4.631613e-03  0 
 5.063922e-03  -4.459025e-03  0 
 0  0  0 
 0  0  0 
 0  0  0 
 0  0  0 
 0  0  0 
 3.057282e-03  -2.760026e-03  0 
 3.879534e-03  -3.061376e-03  0 
 4.563109e-03  -3.207619e-03  0 
 5.179858e-03  -3.287130e-03  0 
 5.772189e-03  -3.339695e-03  0 
 1.374643e-03  -1.107941e-03  0 
 3.288068e-03  -2.735825e-03  0 
 2.075773e-03  -1.447914e-03  0 
 1.221855e-03  -1.600285e-03  0 
 6.188376e-04  -3.976629e-04  0 
 5.055652e-03  -3.355428e-03  0 
 2.784408e-03  -2.214322e-03  0 
 7.177621e-04  -1.082897e-03  0 
 2.928500e-04  -2.270218e-04  0 
 3.269263e-03  -2.370496e-03  0 
 4.115409e-03  -2.904102e-03  0 
 2.848403e-03  -2.083957e-03  0 
 7.082387e-04  -6.304520e-04  0 
 2.282882e-03  -2.477622e-03  0 
 1.174039e-03  -7.643836e-04  0 
 3.499949e-03  -3.679830e-03  0 
 2.149750e-03  -1.810018e-03  0 
 1.250795e-03  -8.978060e-04  0 
 1.756826e-03  -1.251598e-03  0 
 4.516969e-04  -6.252195e-04  0 
 3.283977e-04  -2.296178e-04  0 
 9.653797e-04  -6.563098e-04  0 
 1.280214e-03  -1.342701e-03  0 
 4.720487e-03  -3.949274e-03  0 
 1.691364e-03  -1.396052e-03  0 
 2.240361e-03  -1.615190e-03  0 
 2.244571e-03  -2.950844e-03  0 
 6.356512e-04  -4.744105e-04  0 
 4.187571e-03  -3.306228e-03  0 
 5.521804e-03  -3.599260e-03  0 
 2.073033e-03  -1.883377e-03  0 
VECTORS displacement_ITER13 FLOAT
 6.229495e-22  -4.363606e-22  0 
 1.670689e-03  -2.082827e-03  0 
 0  0  0 
 6.356965e-03  -3.357331e-03  0 
 2.676895e-04  -3.152870e-04  0 
 4.739230e-04  -5.264641e-04  0 
 6.768764e-04  -7.126743e-04  0 
 8.919621e-04  -9.523632e-04  0 
 1.206949e-03  -1.368502e-03  0 
 1.686170e-03  -2.265451e-03  0 
 2.715323e-03  -3.467151e-03  0 
 3.526643e-03  -4.290285e-03  0 
 4.277423e-03  -4.626139e-03  0 
 5.071723e-03  -4.452075e-03  0 
 0  0  0 
 0  0  0 
 0  0  0 
 0  0  0 
 0  0  0 
 3.052437e-03  -2.747833e-03  0 
 3.882554e-03  -3.046944e-03  0 
 4.557014e-03  -3.197904e-03  0 
 5.179694e-03  -3.282532e-03  0 
 5.778448e-03  -3.338101e-03  0 
 1.375797e-03  -1.104709e-03  0 
 3.288841e-03  -2.727367e-03  0 
 2.076002e-03  -1.445195e-03  0 
 1.222439e-03  -1.597532e-03  0 
 6.194338e-04  -3.963313e-04  0 
 5.059140e-03  -3.346739e-03  0 
 2.785151e-03  -2.205952e-03  0 
 7.178853e-04  -1.081747e-03  0 
 2.930185e-04  -2.258542e-04  0 
 3.267495e-03  -2.365502e-03  0 
 4.112949e-03  -2.895052e-03  0 
 2.847959e-03  -2.078633e-03  0 
 7.091917e-04  -6.285385e-04  0 
 2.284139e-03  -2.471541e-03  0 
 1.174608e-03  -7.630557e-04  0 
 3.502673e-03  -3.671990e-03  0 
 2.150772e-03  -1.804779e-03  0 
 1.252327e-03  -8.956118e-04  0 
 1.757476e-03  -1.248559e-03  0 
 4.521198e-04  -6.241351e-04  0 
 3.288818e-04  -2.285017e-04  0 
 9.663304e-04  -6.542758e-04  0 
 1.281381e-03  -1.339226e-03  0 
 4.727730e-03  -3.939741e-03  0 
 1.695430e-03  -1.394603e-03  0 
 2.241140e-03  -1.612423e-03  0 
 2.245030e-03  -2.947114e-03  0 
 6.355341e-04  -4.740203e-04  0 
 4.189782e-03  -3.296155e-03  0 
 5.533730e-03  -3.588245e-03  0 
 2.076381e-03  -1.884659e-03  0 
VECTORS displacement_ITER14 FLOAT
 6.084053e-22  -4.068482e-22  0 
 1.665784e-03  -2.106347e-03  0 
 0  0  0 
 6.362127e-03  -3.352505e-03  0 
 2.696100e-04  -3.172047e-04  0 
 4.800264e-04  -5.335136e-04  0 
 6.867669e-04  -7.164478e-04  0 
 8.958745e-04  -9.469482e-04  0 
 1.207943e-03  -1.364291e-03  0 
 1.686308e-03  -2.265308e-03  0 
 2.715961e-03  -3.466786e-03  0 
 3.528029e-03  -4.289783e-03  0 
 4.279978e-03  -4.625850e-03  0 
 5.075007e-03  -4.450124e-03  0 
 0  0  0 
 0  0  0 
 0  0  0 
 0  0  0 
 0  0  0 
 3.058517e-03  -2.738858e-03  0 
 3.877268e-03  -3.042668e-03  0 
 4.553785e-03  -3.196801e-03  0 
 5.183214e-03  -3.283618e-03  0 
 5.784193e-03  -3.332268e-03  0 
 1.376111e-03  -1.104127e-03  0 
 3.289938e-03  -2.723983e-03  0 
 2.075652e-03  -1.444625e-03  0 
 1.222740e-03  -1.596766e-03  0 
 6.214424e-04  -3.999529e-04  0 
 5.064644e-03  -3.343962e-03  0 
 2.786438e-03  -2.205109e-03  0 
 7.180276e-04  -1.081455e-03  0 
 2.945598e-04  -2.279987e-04  0 
 3.264630e-03  -2.363076e-03  0 
 4.113252e-03  -2.890987e-03  0 
 2.847382e-03  -2.075661e-03  0 
 7.094724e-04  -6.286089e-04  0 
 2.284727e-03  -2.469754e-03  0 
 1.174595e-03  -7.642036e-04  0 
 3.504488e-03  -3.670353e-03  0 
 2.150993e-03  -1.802707e-03  0 
 1.254066e-03  -8.941846e-04  0 
 1.757561e-03  -1.247947e-03  0 
 4.523240e-04  -6.239129e-04  0 
 3.299599e-04  -2.301931e-04  0 
 9.667489e-04  -6.549912e-04  0 
 1.281634e-03  -1.338349e-03  0 
 4.731644e-03  -3.938052e-03  0 
 1.700068e-03  -1.391472e-03  0 
 2.242004e-03  -1.611322e-03  0 
 2.245636e-03  -2.946305e-03  0 
 6.395453e-04  -4.806277e-04  0 
 4.192713e-03  -3.292878e-03  0 
 5.538348e-03  -3.584662e-03  0 
 2.084874e-03  -1.882936e-03  0 
VECTORS displacement_ITER15 FLOAT
 5.809807e-22  -3.769003e-22  0 
 1.661998e-03  -2.107784e-03  0 
 0  0  0 
 6.360138e-03  -3.360149e-03  0 
 2.669524e-04  -3.140225e-04  0 
 4.777528e-04  -5.328406e-04  0 
 6.828698e-04  -7.171659e-04  0 
 8.883506e-04  -9.488329e-04  0 
 1.198412e-03  -1.364901e-03  0 
 1.685772e-03  -2.264927e-03  0 
 2.714532e-03  -3.465980e-03  0 
 3.525419e-03  -4.288372e-03  0 
 4.275618e-03  -4.622093e-03  0 
 5.070377e-03  -4.446151e-03  0 
 0  0  0 
 0  0  0 
 0  0  0 
 0  0  0 
 0  0  0 
 3.051950e-03  -2.738821e-03  0 
 3.875937e-03  -3.043809e-03  0 
 4.562261e-03  -3.195667e-03  0 
 5.181086e-03  -3.274332e-03  0 
 5.778805e-03  -3.324787e-03  0 
 1.375794e-03  -1.103142e-03  0 
 3.290331e-03  -2.724479e-03  0 
 2.075650e-03  -1.441644e-03  0 
 1.222401e-03  -1.596785e-03  0 
 6.212569e-04  -3.983967e-04  0 
 5.060423e-03  -3.339638e-03  0 
 2.782378e-03  -2.204916e-03  0 
 7.177753e-04  -1.081430e-03  0 
 2.939185e-04  -2.257788e-04  0 
 3.266637e-03  -2.359364e-03  0 
 4.116401e-03  -2.891370e-03  0 
 2.848201e-03  -2.073986e-03  0 
 7.091339e-04  -6.279592e-04  0 
 2.284418e-03  -2.470069e-03  0 
 1.174096e-03  -7.617752e-04  0 
 3.502577e-03  -3.669971e-03  0 
 2.150891e-03  -1.802095e-03  0 
 1.251648e-03  -8.922384e-04  0 
 1.757496e-03  -1.246082e-03  0 
 4.520601e-04  -6.237506e-04  0 
 3.296861e-04  -2.293171e-04  0 
 9.664009e-04  -6.535014e-04  0 
 1.281259e-03  -1.338020e-03  0 
 4.726406e-03  -3.934955e-03  0 
 1.694639e-03  -1.391580e-03  0 
 2.240252e-03  -1.608762e-03  0 
 2.244711e-03  -2.946189e-03  0 
 6.386498e-04  -4.793850e-04  0 
 4.191244e-03  -3.292621e-03  0 
 5.531273e-03  -3.581191e-03  0 
 2.079104e-03  -1.885397e-03  0 
VECTORS displacement_ITER16 FLOAT
 5.350192e-22  -3.453389e-22  0 
 1.659272e-03  -2.116260e-03  0 
 0  0  0 
 6.354385e-03  -3.362815e-03  0 
 2.638066e-04  -3.143598e-04  0 
 4.771052e-04  -5.298874e-04  0 
 6.798199e-04  -7.136827e-04  0 
 8.894404e-04  -9.485798e-04  0 
 1.199350e-03  -1.364053e-03  0 
 1.685498e-03  -2.264465e-03  0 
 2.714338e-03  -3.465627e-03  0 
 3.525452e-03  -4.288503e-03  0 
 4.275961e-03  -4.623943e-03  0 
 5.070107e-03  -4.450071e-03  0 
 0  0  0 
 0  0  0 
 0  0  0 
 0  0  0 
 0  0  0 
 3.055006e-03  -2.737636e-03  0 
 3.874154e-03  -3.038718e-03  0 
 4.558586e-03  -3.193635e-03  0 
 5.180999e-03  -3.275913e-03  0 
 5.782918e-03  -3.328220e-03  0 
 1.375525e-03  -1.103388e-03  0 
 3.288935e-03  -2.724159e-03  0 
 2.075432e-03  -1.442650e-03  0 
 1.221954e-03  -1.596557e-03  0 
 6.204347e-04  -3.973645e-04  0 
 5.061233e-03  -3.341216e-03  0 
 2.784166e-03  -2.204649e-03  0 
 7.175892e-04  -1.081188e-03  0 
 2.931189e-04  -2.249421e-04  0 
 3.264661e-03  -2.359254e-03  0 
 4.114261e-03  -2.890418e-03  0 
 2.846927e-03  -2.073910e-03  0 
 7.090183e-04  -6.280542e-04  0 
 2.283413e-03  -2.469885e-03  0 
 1.174014e-03  -7.621955e-04  0 
 3.501707e-03  -3.670304e-03  0 
 2.150054e-03  -1.802103e-03  0 
 1.252121e-03  -8.927024e-04  0 
 1.757227e-03  -1.246624e-03  0 
 4.519121e-04  -6.237466e-04  0 
 3.292889e-04  -2.287326e-04  0 
 9.662736e-04  -6.535571e-04  0 
 1.280783e-03  -1.338081e-03  0 
 4.726156e-03  -3.937711e-03  0 
 1.696332e-03  -1.391249e-03  0 
 2.240912e-03  -1.609436e-03  0 
 2.244227e-03  -2.945698e-03  0 
 6.369675e-04  -4.774646e-04  0 