# vtk DataFile Version 3.1
this is an vtk file created by FEMAC
ASCII
DATASET UNSTRUCTURED_GRID
POINTS 56 FLOAT
2.000000 0.000000 0.000000
3.000000 0.000000 0.000000
2.000000 1.000000 0.000000
3.000000 1.000000 0.000000
2.166667 0.000000 0.000000
2.333333 0.000000 0.000000
2.500000 0.000000 0.000000
2.666667 0.000000 0.000000
2.833333 0.000000 0.000000
2.000000 0.166667 0.000000
2.000000 0.333333 0.000000
2.000000 0.500000 0.000000
2.000000 0.666667 0.000000
2.000000 0.833333 0.000000
2.166667 1.000000 0.000000
2.333333 1.000000 0.000000
2.500000 1.000000 0.000000
2.666667 1.000000 0.000000
2.833333 1.000000 0.000000
3.000000 0.166667 0.000000
3.000000 0.333333 0.000000
3.000000 0.500000 0.000000
3.000000 0.666667 0.000000
3.000000 0.833333 0.000000
2.512653 0.354260 0.000000
2.337982 0.617149 0.000000
2.681505 0.605629 0.000000
2.240896 0.265181 0.000000
2.848143 0.267621 0.000000
2.230204 0.869346 0.000000
2.774371 0.867208 0.000000
2.137258 0.144877 0.000000
2.610864 0.797025 0.000000
2.400943 0.799697 0.000000
2.510119 0.631368 0.000000
2.496236 0.200743 0.000000
2.752911 0.440804 0.000000
2.276128 0.438608 0.000000
2.439169 0.473252 0.000000
2.157069 0.571692 0.000000
2.589156 0.465156 0.000000
2.851162 0.593293 0.000000
2.645534 0.273596 0.000000
2.380316 0.311838 0.000000
2.325742 0.132321 0.000000
2.121386 0.763643 0.000000
2.885200 0.762551 0.000000
2.752779 0.718005 0.000000
2.115907 0.345766 0.000000
2.257712 0.724153 0.000000
2.749522 0.116687 0.000000
2.611592 0.118205 0.000000
2.103651 0.893264 0.000000
2.884719 0.104874 0.000000
2.898581 0.892618 0.000000
2.890443 0.427010 0.000000
CELLS 86 344 
3 4 31  0
3 31  9  0
3 16 33 32
3 34 26 32
3 38 25 37
3 25 38 34
3 26 40 36
3 40 26 34
3 42 24 35
3 42 28 36
3 27 43 37
3 44 27 31
3 12 45 13
3 45 12 39
3 46 22 23
3 22 46 41
3 26 47 32
3 47 30 32
3 47 26 41
3 27 48 31
3 49 25 33
3 29 49 33
3 25 49 39
3 34 33 25
3 32 33 34
3 40 38 24
3 34 38 40
3 43 35 24
3 42 40 24
3 36 40 42
3 38 43 24
3 38 37 43
3 45 49 29
3 45 39 49
3 47 46 30
3 41 46 47
3 16 15 33
3 15 29 33
3 14 29 15
3 48 11 10
3 48 27 37
3 50  7  8
3 42 50 28
3 6 44  5
3 6 35 44
3 43 27 44
3 44 35 43
3 11 39 12
3 48 39 11
3 25 39 37
3 48 37 39
3 41 21 22
3 41 26 36
3 17 16 32
3 30 17 32
3 30 18 17
3 4  5 44
3 31  4 44
3 10  9 48
3 9 31 48
3 20 28 19
3 7 51  6
3 51 35  6
3 51  7 50
3 13 52  2
3 52 14  2
3 52 13 45
3 53  8  1
3 19 53  1
3 18 54  3
3 23 54 46
3 54 23  3
3 52 29 14
3 45 29 52
3 30 54 18
3 30 46 54
3 51 42 35
3 50 42 51
3 8 53 50
3 53 28 50
3 28 53 19
3 55 21 41
3 36 55 41
3 20 55 28
3 55 20 21
3 55 36 28
CELL_TYPES 86
5 5 5 5 5 5 5 5 5 5 5 5 5 5 5 5 5 5 5 5 5 5 5 5 5 5 5 5 5 5 5 5 5 5 5 5 5 5 5 5 5 5 5 5 5 5 5 5 5 5 5 5 5 5 5 5 5 5 5 5 5 5 5 5 5 5 5 5 5 5 5 5 5 5 5 5 5 5 5 5 5 5 5 5 5 5 
POINT_DATA 56
VECTORS displacement_ITER1 FLOAT
 -1.188264e-02  -5.924217e-03  0 
 -1.202272e-02  -1.307205e-02  0 
 -4.194656e-03  -4.972446e-03  0 
 -5.067600e-03  -1.294101e-02  0 
 -1.191932e-02  -7.068545e-03  0 
 -1.195467e-02  -8.246926e-03  0 
 -1.198552e-02  -9.433112e-03  0 
 -1.200601e-02  -1.063901e-02  0 
 -1.201943e-02  -1.185475e-02  0 
 -1.072157e-02  -5.864450e-03  0 
 -9.527692e-03  -5.793552e-03  0 
 -8.339452e-03  -5.706571e-03  0 
 -7.093836e-03  -5.581036e-03  0 
 -5.745354e-03  -5.346906e-03  0 
 -4.387340e-03  -6.653634e-03  0 
 -4.564479e-03  -8.059712e-03  0 
 -4.672861e-03  -9.345395e-03  0 
 -4.772128e-03  -1.057394e-02  0 
 -4.900557e-03  -1.177342e-02  0 
 -1.081544e-02  -1.306576e-02  0 
 -9.597767e-03  -1.305660e-02  0 
 -8.383878e-03  -1.304496e-02  0 
 -7.193189e-03  -1.301797e-02  0 
 -6.057501e-03  -1.296280e-02  0 
 -9.446598e-03  -9.503557e-03  0 
 -7.535704e-03  -8.198072e-03  0 
 -7.624877e-03  -1.075837e-02  0 
 -1.006740e-02  -7.539845e-03  0 
 -1.007142e-02  -1.195024e-02  0 
 -5.565555e-03  -7.301623e-03  0 
 -5.790924e-03  -1.143504e-02  0 
 -1.090309e-02  -6.831665e-03  0 
 -6.239207e-03  -1.025273e-02  0 
 -6.164075e-03  -8.669162e-03  0 
 -7.437012e-03  -9.507000e-03  0 
 -1.054671e-02  -9.385325e-03  0 
 -8.812307e-03  -1.125848e-02  0 
 -8.834404e-03  -7.759134e-03  0 
 -8.590813e-03  -8.966211e-03  0 
 -7.854604e-03  -6.836511e-03  0 
 -8.643063e-03  -1.007171e-02  0 
 -7.707075e-03  -1.197633e-02  0 
 -1.002562e-02  -1.047012e-02  0 
 -9.749377e-03  -8.539038e-03  0 
 -1.101913e-02  -8.165080e-03  0 
 -6.389294e-03  -6.453566e-03  0 
 -6.518428e-03  -1.221568e-02  0 
 -6.820176e-03  -1.128305e-02  0 
 -9.472804e-03  -6.618736e-03  0 
 -6.722004e-03  -7.560394e-03  0 
 -1.116572e-02  -1.123410e-02  0 
 -1.114759e-02  -1.022841e-02  0 
 -5.304296e-03  -6.182739e-03  0 
 -1.125832e-02  -1.222698e-02  0 
 -5.670373e-03  -1.230518e-02  0 
 -8.912129e-03  -1.225614e-02  0 
VECTORS displacement_ITER2 FLOAT
 -8.786879e-03  -4.570248e-03  0 
 -8.917079e-03  -9.559418e-03  0 
 -3.082573e-03  -3.513172e-03  0 
 -4.295229e-03  -9.277231e-03  0 
 -8.824458e-03  -5.351092e-03  0 
 -8.858991e-03  -6.169333e-03  0 
 -8.888002e-03  -6.995722e-03  0 
 -8.904976e-03  -7.844940e-03  0 
 -8.914782e-03  -8.702652e-03  0 
 -7.996986e-03  -4.514045e-03  0 
 -7.168739e-03  -4.442816e-03  0 
 -6.320330e-03  -4.349477e-03  0 
 -5.429710e-03  -4.221353e-03  0 
 -4.426451e-03  -3.971243e-03  0 
 -3.376375e-03  -4.940993e-03  0 
 -3.597168e-03  -5.996933e-03  0 
 -3.726307e-03  -6.925017e-03  0 
 -3.851847e-03  -7.784360e-03  0 
 -4.032264e-03  -8.591211e-03  0 
 -8.063481e-03  -9.559175e-03  0 
 -7.203910e-03  -9.555483e-03  0 
 -6.351400e-03  -9.540520e-03  0 
 -5.521630e-03  -9.496026e-03  0 
 -4.767973e-03  -9.390472e-03  0 
 -7.107885e-03  -7.051708e-03  0 
 -5.763130e-03  -6.136322e-03  0 
 -5.818930e-03  -7.949403e-03  0 
 -7.549408e-03  -5.667709e-03  0 
 -7.539440e-03  -8.773333e-03  0 
 -4.311505e-03  -5.478680e-03  0 
 -4.580080e-03  -8.424069e-03  0 
 -8.126119e-03  -5.179879e-03  0 
 -4.857154e-03  -7.608909e-03  0 
 -4.776102e-03  -6.480404e-03  0 
 -5.691671e-03  -7.079936e-03  0 
 -7.879870e-03  -6.961722e-03  0 
 -6.650693e-03  -8.289219e-03  0 
 -6.688064e-03  -5.821680e-03  0 
 -6.510751e-03  -6.681401e-03  0 
 -5.989060e-03  -5.151210e-03  0 
 -6.538174e-03  -7.460219e-03  0 
 -5.871322e-03  -8.790293e-03  0 
 -7.509995e-03  -7.728377e-03  0 
 -7.325737e-03  -6.369794e-03  0 
 -8.210414e-03  -6.104896e-03  0 
 -4.927799e-03  -4.845253e-03  0 
 -5.056189e-03  -8.941978e-03  0 
 -5.259528e-03  -8.317903e-03  0 
 -7.136044e-03  -5.021321e-03  0 
 -5.175939e-03  -5.671974e-03  0 
 -8.313073e-03  -8.264915e-03  0 
 -8.301036e-03  -7.554922e-03  0 
 -4.088944e-03  -4.619421e-03  0 
 -8.377776e-03  -8.965673e-03  0 
 -4.534764e-03  -8.993065e-03  0 
 -6.720817e-03  -8.990203e-03  0 
VECTORS displacement_ITER3 FLOAT
 -8.188602e-03  -4.430949e-03  0 
 -8.310972e-03  -8.932204e-03  0 
 -2.914449e-03  -3.353331e-03  0 
 -4.276794e-03  -8.559998e-03  0 
 -8.221721e-03  -5.131998e-03  0 
 -8.252829e-03  -5.866938e-03  0 
 -8.279190e-03  -6.609553e-03  0 
 -8.295199e-03  -7.374781e-03  0 
 -8.305537e-03  -8.150751e-03  0 
 -7.477036e-03  -4.379913e-03  0 
 -6.733609e-03  -4.312181e-03  0 
 -5.970253e-03  -4.222656e-03  0 
 -5.162322e-03  -4.086288e-03  0 
 -4.240546e-03  -3.828299e-03  0 
 -3.254302e-03  -4.723930e-03  0 
 -3.485945e-03  -5.702988e-03  0 
 -3.626273e-03  -6.555284e-03  0 
 -3.761870e-03  -7.328708e-03  0 
 -3.965681e-03  -8.026077e-03  0 
 -7.531239e-03  -8.927534e-03  0 
 -6.755600e-03  -8.921839e-03  0 
 -5.987725e-03  -8.902787e-03  0 
 -5.247633e-03  -8.853083e-03  0 
 -4.590033e-03  -8.725035e-03  0 
 -6.676451e-03  -6.664349e-03  0 
 -5.469240e-03  -5.844210e-03  0 
 -5.512118e-03  -7.481521e-03  0 
 -7.076911e-03  -5.416007e-03  0 
 -7.058737e-03  -8.215887e-03  0 
 -4.134233e-03  -5.241872e-03  0 
 -4.419031e-03  -7.910815e-03  0 
 -7.594043e-03  -4.978331e-03  0 
 -4.654151e-03  -7.185470e-03  0 
 -4.571865e-03  -6.163455e-03  0 
 -5.401820e-03  -6.704121e-03  0 
 -7.371759e-03  -6.579522e-03  0 
 -6.257875e-03  -7.781336e-03  0 
 -6.304389e-03  -5.554585e-03  0 
 -6.141504e-03  -6.334823e-03  0 
 -5.675755e-03  -4.945195e-03  0 
 -6.160820e-03  -7.037081e-03  0 
 -5.556243e-03  -8.231036e-03  0 
 -7.035521e-03  -7.272120e-03  0 
 -6.875511e-03  -6.048170e-03  0 
 -7.669877e-03  -5.808794e-03  0 
 -4.707297e-03  -4.655264e-03  0 
 -4.831792e-03  -8.359456e-03  0 
 -5.011452e-03  -7.813526e-03  0 
 -6.705673e-03  -4.833392e-03  0 
 -4.936000e-03  -5.421015e-03  0 
 -7.759912e-03  -7.754211e-03  0 
 -7.750289e-03  -7.113385e-03  0 
 -3.917648e-03  -4.445283e-03  0 
 -7.817556e-03  -8.388687e-03  0 
 -4.396636e-03  -8.398157e-03  0 
 -6.319880e-03  -8.410966e-03  0 
VECTORS displacement_ITER4 FLOAT
 -7.597404e-03  -4.507343e-03  0 
 -7.702682e-03  -8.833768e-03  0 
 -2.481929e-03  -3.468313e-03  0 
 -3.919413e-03  -8.392773e-03  0 
 -7.624194e-03  -5.185987e-03  0 
 -7.649691e-03  -5.891729e-03  0 
 -7.671488e-03  -6.603803e-03  0 
 -7.685414e-03  -7.335984e-03  0 
 -7.695255e-03  -8.079658e-03  0 
 -6.909024e-03  -4.465942e-03  0 
 -6.194816e-03  -4.407041e-03  0 
 -5.468927e-03  -4.326375e-03  0 
 -4.689983e-03  -4.189608e-03  0 
 -3.798776e-03  -3.928578e-03  0 
 -2.841031e-03  -4.792912e-03  0 
 -3.079568e-03  -5.740653e-03  0 
 -3.227988e-03  -6.558854e-03  0 
 -3.370880e-03  -7.290824e-03  0 
 -3.586713e-03  -7.937537e-03  0 
 -6.950796e-03  -8.823890e-03  0 
 -6.210570e-03  -8.815413e-03  0 
 -5.475730e-03  -8.793287e-03  0 
 -4.773723e-03  -8.736917e-03  0 
 -4.160725e-03  -8.592568e-03  0 
 -6.135929e-03  -6.660173e-03  0 
 -4.984706e-03  -5.882125e-03  0 
 -5.021802e-03  -7.442669e-03  0 
 -6.521943e-03  -5.464403e-03  0 
 -6.499189e-03  -8.142366e-03  0 
 -3.696440e-03  -5.305729e-03  0 
 -3.994013e-03  -7.847618e-03  0 
 -7.019388e-03  -5.041822e-03  0 
 -4.208377e-03  -7.165492e-03  0 
 -4.124472e-03  -6.192500e-03  0 
 -4.918289e-03  -6.705895e-03  0 
 -6.802151e-03  -6.577028e-03  0 
 -5.732942e-03  -7.726766e-03  0 
 -5.783298e-03  -5.599257e-03  0 
 -5.625507e-03  -6.347890e-03  0 
 -5.185536e-03  -5.018903e-03  0 
 -5.641491e-03  -7.018061e-03  0 
 -5.063275e-03  -8.152667e-03  0 
 -6.478202e-03  -7.240046e-03  0 
 -6.328188e-03  -6.070089e-03  0 
 -7.089592e-03  -5.839237e-03  0 
 -4.252636e-03  -4.738262e-03  0 
 -4.378912e-03  -8.266956e-03  0 
 -4.546739e-03  -7.757379e-03  0 
 -6.167137e-03  -4.906762e-03  0 
 -4.473750e-03  -5.478209e-03  0 
 -7.171557e-03  -7.699974e-03  0 
 -7.163641e-03  -7.086802e-03  0 
 -3.478784e-03  -4.537070e-03  0 
 -7.225936e-03  -8.307574e-03  0 
 -3.982684e-03  -8.294998e-03  0 
 -5.792707e-03  -8.326173e-03  0 
VECTORS displacement_ITER5 FLOAT
 -7.492451e-03  -4.570809e-03  0 
 -7.593507e-03  -8.816815e-03  0 
 -2.471881e-03  -3.560484e-03  0 
 -3.906038e-03  -8.355425e-03  0 
 -7.517427e-03  -5.239139e-03  0 
 -7.541470e-03  -5.931411e-03  0 
 -7.562175e-03  -6.629710e-03  0 
 -7.575752e-03  -7.347278e-03  0 
 -7.585649e-03  -8.076462e-03  0 
 -6.815464e-03  -4.533649e-03  0 
 -6.116944e-03  -4.478737e-03  0 
 -5.405834e-03  -4.400272e-03  0 
 -4.640809e-03  -4.266223e-03  0 
 -3.768079e-03  -4.006658e-03  0 
 -2.826709e-03  -4.855602e-03  0 
 -3.064062e-03  -5.787317e-03  0 
 -3.210844e-03  -6.588580e-03  0 
 -3.352866e-03  -7.302592e-03  0 
 -3.570354e-03  -7.931282e-03  0 
 -6.855584e-03  -8.805878e-03  0 
 -6.129943e-03  -8.796601e-03  0 
 -5.409599e-03  -8.774916e-03  0 
 -4.721785e-03  -8.717476e-03  0 
 -4.125680e-03  -8.569516e-03  0 
 -6.056837e-03  -6.685313e-03  0 
 -4.930007e-03  -5.924899e-03  0 
 -4.964771e-03  -7.452104e-03  0 
 -6.435752e-03  -5.513385e-03  0 
 -6.412627e-03  -8.137505e-03  0 
 -3.667073e-03  -5.361566e-03  0 
 -3.961339e-03  -7.848144e-03  0 
 -6.923151e-03  -5.098530e-03  0 
 -4.169466e-03  -7.182240e-03  0 
 -4.087133e-03  -6.230389e-03  0 
 -4.864166e-03  -6.731834e-03  0 
 -6.709880e-03  -6.603590e-03  0 
 -5.661476e-03  -7.729963e-03  0 
 -5.712273e-03  -5.646772e-03  0 
 -5.557113e-03  -6.380096e-03  0 
 -5.127291e-03  -5.079309e-03  0 
 -5.572108e-03  -7.036137e-03  0 
 -5.004963e-03  -8.146456e-03  0 
 -6.392095e-03  -7.253270e-03  0 
 -6.245550e-03  -6.107155e-03  0 
 -6.991858e-03  -5.880604e-03  0 
 -4.213328e-03  -4.803572e-03  0 
 -4.335805e-03  -8.256588e-03  0 
 -4.499818e-03  -7.760028e-03  0 
 -6.089016e-03  -4.967770e-03  0 
 -4.429853e-03  -5.529804e-03  0 
 -7.071887e-03  -7.704031e-03  0 
 -7.064195e-03  -7.103080e-03  0 
 -3.451820e-03  -4.606837e-03  0 
 -7.125267e-03  -8.299780e-03  0 
 -3.952178e-03  -8.280598e-03  0 
 -5.720290e-03  -8.317177e-03  0 
VECTORS displacement_ITER6 FLOAT
 -7.377271e-03  -4.646241e-03  0 
 -7.474938e-03  -8.808356e-03  0 
 -2.456376e-03  -3.661028e-03  0 
 -3.869777e-03  -8.342506e-03  0 
 -7.401379e-03  -5.302159e-03  0 
 -7.424678e-03  -5.980949e-03  0 
 -7.444788e-03  -6.665604e-03  0 
 -7.458062e-03  -7.369043e-03  0 
 -7.467718e-03  -8.083879e-03  0 
 -6.713155e-03  -4.610818e-03  0 
 -6.028367e-03  -4.557370e-03  0 
 -5.330277e-03  -4.479482e-03  0 
 -4.581742e-03  -4.349702e-03  0 
 -3.725230e-03  -4.096011e-03  0 
 -2.803313e-03  -4.926718e-03  0 
 -3.037399e-03  -5.840281e-03  0 
 -3.180879e-03  -6.624405e-03  0 
 -3.321458e-03  -7.323656e-03  0 
 -3.536816e-03  -7.937540e-03  0 
 -6.752592e-03  -8.798976e-03  0 
 -6.040791e-03  -8.789129e-03  0 
 -5.335142e-03  -8.767413e-03  0 
 -4.661598e-03  -8.708919e-03  0 
 -4.079174e-03  -8.561239e-03  0 
 -5.968925e-03  -6.720113e-03  0 
 -4.864266e-03  -5.975114e-03  0 
 -4.898630e-03  -7.471050e-03  0 
 -6.340588e-03  -5.571432e-03  0 
 -6.317865e-03  -8.143267e-03  0 
 -3.627146e-03  -5.423647e-03  0 
 -3.916891e-03  -7.857870e-03  0 
 -6.818481e-03  -5.164562e-03  0 
 -4.119891e-03  -7.206724e-03  0 
 -4.038638e-03  -6.274140e-03  0 
 -4.800026e-03  -6.765746e-03  0 
 -6.609183e-03  -6.639994e-03  0 
 -5.581443e-03  -7.743551e-03  0 
 -5.631346e-03  -5.702446e-03  0 
 -5.479113e-03  -6.421174e-03  0 
 -5.057503e-03  -5.145883e-03  0 
 -5.493771e-03  -7.063799e-03  0 
 -4.938139e-03  -8.150923e-03  0 
 -6.297597e-03  -7.276699e-03  0 
 -6.154014e-03  -6.153482e-03  0 
 -6.885706e-03  -5.931320e-03  0 
 -4.162151e-03  -4.877041e-03  0 
 -4.283373e-03  -8.257237e-03  0 
 -4.443446e-03  -7.772201e-03  0 
 -6.000900e-03  -5.036828e-03  0 
 -4.374111e-03  -5.588051e-03  0 
 -6.964211e-03  -7.718700e-03  0 
 -6.956578e-03  -7.129617e-03  0 
 -3.415409e-03  -4.683830e-03  0 
 -7.016816e-03  -8.302754e-03  0 
 -3.908683e-03  -8.278900e-03  0 
 -5.639323e-03  -8.319082e-03  0 
VECTORS displacement_ITER7 FLOAT
 -7.322647e-03  -4.654943e-03  0 
 -7.419479e-03  -8.785402e-03  0 
 -2.445063e-03  -3.683392e-03  0 
 -3.833311e-03  -8.328161e-03  0 
 -7.346794e-03  -5.305497e-03  0 
 -7.370069e-03  -5.979302e-03  0 
 -7.390112e-03  -6.658987e-03  0 
 -7.403215e-03  -7.357376e-03  0 
 -7.412629e-03  -8.066912e-03  0 
 -6.663887e-03  -4.619315e-03  0 
 -5.983416e-03  -4.565371e-03  0 
 -5.290274e-03  -4.487817e-03  0 
 -4.548442e-03  -4.360351e-03  0 
 -3.697699e-03  -4.111622e-03  0 
 -2.784811e-03  -4.934854e-03  0 
 -3.015778e-03  -5.840307e-03  0 
 -3.156842e-03  -6.617588e-03  0 
 -3.295394e-03  -7.311762e-03  0 
 -3.506948e-03  -7.922037e-03  0 
 -6.702943e-03  -8.776780e-03  0 
 -5.996292e-03  -8.767164e-03  0 
 -5.295946e-03  -8.745731e-03  0 
 -4.627433e-03  -8.687796e-03  0 
 -4.048053e-03  -8.542756e-03  0 
 -5.924824e-03  -6.713069e-03  0 
 -4.827595e-03  -5.973144e-03  0 
 -4.862288e-03  -7.458167e-03  0 
 -6.293829e-03  -5.572632e-03  0 
 -6.271416e-03  -8.125959e-03  0 
 -3.600838e-03  -5.426453e-03  0 
 -3.886366e-03  -7.841393e-03  0 
 -6.768427e-03  -5.168811e-03  0 
 -4.088565e-03  -7.194957e-03  0 
 -4.008254e-03  -6.269495e-03  0 
 -4.764029e-03  -6.757604e-03  0 
 -6.560546e-03  -6.633596e-03  0 
 -5.540369e-03  -7.729149e-03  0 
 -5.589425e-03  -5.702501e-03  0 
 -5.438293e-03  -6.416064e-03  0 
 -5.019525e-03  -5.149804e-03  0 
 -5.453122e-03  -7.054114e-03  0 
 -4.901840e-03  -8.133566e-03  0 
 -6.251248e-03  -7.265741e-03  0 
 -6.108564e-03  -6.150475e-03  0 
 -6.835099e-03  -5.929935e-03  0 
 -4.130998e-03  -4.884679e-03  0 
 -4.251502e-03  -8.239001e-03  0 
 -4.410286e-03  -7.756901e-03  0 
 -5.956372e-03  -5.041660e-03  0 
 -4.341040e-03  -5.589166e-03  0 
 -6.912998e-03  -7.704528e-03  0 
 -6.905422e-03  -7.119714e-03  0 
 -3.391381e-03  -4.693033e-03  0 
 -6.965219e-03  -8.284211e-03  0 
 -3.877378e-03  -8.260365e-03  0 
 -5.597851e-03  -8.300580e-03  0 
VECTORS displacement_ITER8 FLOAT
 -7.364539e-03  -4.612537e-03  0 
 -7.461938e-03  -8.739207e-03  0 
 -2.501358e-03  -3.647326e-03  0 
 -3.864020e-03  -8.295008e-03  0 
 -7.389099e-03  -5.262033e-03  0 
 -7.412740e-03  -5.935349e-03  0 
 -7.433063e-03  -6.614666e-03  0 
 -7.446221e-03  -7.312764e-03  0 
 -7.455518e-03  -8.021795e-03  0 
 -6.706571e-03  -4.576048e-03  0 
 -6.026493e-03  -4.521362e-03  0 
 -5.333989e-03  -4.444202e-03  0 
 -4.592131e-03  -4.317174e-03  0 
 -3.744034e-03  -4.071538e-03  0 
 -2.834294e-03  -4.893516e-03  0 
 -3.061746e-03  -5.795975e-03  0 
 -3.200817e-03  -6.573120e-03  0 
 -3.336655e-03  -7.267886e-03  0 
 -3.544550e-03  -7.880748e-03  0 
 -6.746761e-03  -8.731025e-03  0 
 -6.040298e-03  -8.721913e-03  0 
 -5.339912e-03  -8.701068e-03  0 
 -4.670715e-03  -8.645198e-03  0 
 -4.089342e-03  -8.503977e-03  0 
 -5.968572e-03  -6.668259e-03  0 
 -4.871424e-03  -5.927876e-03  0 
 -4.906520e-03  -7.412891e-03  0 
 -6.337080e-03  -5.528387e-03  0 
 -6.315413e-03  -8.080768e-03  0 
 -3.646873e-03  -5.381416e-03  0 
 -3.927820e-03  -7.796826e-03  0 
 -6.811306e-03  -5.125108e-03  0 
 -4.131906e-03  -7.148860e-03  0 
 -4.052782e-03  -6.223511e-03  0 
 -4.808010e-03  -6.711574e-03  0 
 -6.603937e-03  -6.589123e-03  0 
 -5.584660e-03  -7.684134e-03  0 
 -5.632757e-03  -5.657941e-03  0 
 -5.481987e-03  -6.370891e-03  0 
 -5.063053e-03  -5.105699e-03  0 
 -5.497226e-03  -7.008932e-03  0 
 -4.946147e-03  -8.089130e-03  0 
 -6.295061e-03  -7.220940e-03  0 
 -6.151981e-03  -6.105970e-03  0 
 -6.878184e-03  -5.885722e-03  0 
 -4.175428e-03  -4.840785e-03  0 
 -4.294637e-03  -8.196102e-03  0 
 -4.454052e-03  -7.711970e-03  0 
 -5.999581e-03  -4.997423e-03  0 
 -4.385263e-03  -5.544099e-03  0 
 -6.956401e-03  -7.659698e-03  0 
 -6.948719e-03  -7.075149e-03  0 
 -3.439452e-03  -4.649950e-03  0 
 -7.008635e-03  -8.239001e-03  0 
 -3.917057e-03  -8.218326e-03  0 
 -5.642000e-03  -8.255604e-03  0 
VECTORS displacement_ITER9 FLOAT
 -7.370418e-03  -4.633217e-03  0 
 -7.466637e-03  -8.738146e-03  0 
 -2.539667e-03  -3.677593e-03  0 
 -3.881935e-03  -8.303838e-03  0 
 -7.394794e-03  -5.279854e-03  0 
 -7.418232e-03  -5.949950e-03  0 
 -7.438394e-03  -6.625941e-03  0 
 -7.451487e-03  -7.320375e-03  0 
 -7.460656e-03  -8.025489e-03  0 
 -6.715412e-03  -4.596982e-03  0 
 -6.038670e-03  -4.543088e-03  0 
 -5.349807e-03  -4.467108e-03  0 
 -4.611095e-03  -4.340580e-03  0 
 -3.769197e-03  -4.097491e-03  0 
 -2.866960e-03  -4.913564e-03  0 
 -3.090519e-03  -5.809345e-03  0 
 -3.228296e-03  -6.582900e-03  0 
 -3.362413e-03  -7.274810e-03  0 
 -3.567336e-03  -7.886052e-03  0 
 -6.756263e-03  -8.730754e-03  0 
 -6.053432e-03  -8.721871e-03  0 
 -5.356710e-03  -8.700754e-03  0 
 -4.690697e-03  -8.645706e-03  0 
 -4.111494e-03  -8.506947e-03  0 
 -5.981522e-03  -6.678718e-03  0 
 -4.889995e-03  -5.941525e-03  0 
 -4.925494e-03  -7.418891e-03  0 
 -6.347685e-03  -5.544991e-03  0 
 -6.327070e-03  -8.083898e-03  0 
 -3.672828e-03  -5.396803e-03  0 
 -3.950927e-03  -7.800971e-03  0 
 -6.819653e-03  -5.143600e-03  0 
 -4.154654e-03  -7.155575e-03  0 
 -4.076238e-03  -6.234724e-03  0 
 -4.827273e-03  -6.720760e-03  0 
 -6.613513e-03  -6.600377e-03  0 
 -5.600063e-03  -7.689091e-03  0 
 -5.646897e-03  -5.673720e-03  0 
 -5.497348e-03  -6.382550e-03  0 
 -5.080123e-03  -5.124629e-03  0 
 -5.512872e-03  -7.017261e-03  0 
 -4.965029e-03  -8.091999e-03  0 
 -6.306526e-03  -7.228658e-03  0 
 -6.163667e-03  -6.119569e-03  0 
 -6.886243e-03  -5.900638e-03  0 
 -4.197373e-03  -4.860373e-03  0 
 -4.316561e-03  -8.199006e-03  0 
 -4.475337e-03  -7.716469e-03  0 
 -6.011740e-03  -5.016717e-03  0 
 -4.406454e-03  -5.559508e-03  0 
 -6.964423e-03  -7.665372e-03  0 
 -6.956620e-03  -7.083946e-03  0 
 -3.467615e-03  -4.670650e-03  0 
 -7.016516e-03  -8.241499e-03  0 
 -3.939558e-03  -8.221806e-03  0 
 -5.657128e-03  -8.257715e-03  0 
VECTORS displacement_ITER10 FLOAT
 -7.365646e-03  -4.631531e-03  0 
 -7.461000e-03  -8.734731e-03  0 
 -2.542252e-03  -3.680430e-03  0 
 -3.873139e-03  -8.306961e-03  0 
 -7.389583e-03  -5.278815e-03  0 
 -7.412705e-03  -5.948679e-03  0 
 -7.432655e-03  -6.624368e-03  0 
 -7.445718e-03  -7.318125e-03  0 
 -7.454888e-03  -8.022522e-03  0 
 -6.710044e-03  -4.596243e-03  0 
 -6.033762e-03  -4.543017e-03  0 
 -5.345444e-03  -4.467341e-03  0 
 -4.608114e-03  -4.341458e-03  0 
 -3.767752e-03  -4.099417e-03  0 
 -2.867323e-03  -4.914308e-03  0 
 -3.089062e-03  -5.808862e-03  0 
 -3.225767e-03  -6.581316e-03  0 
 -3.358875e-03  -7.272804e-03  0 
 -3.561627e-03  -7.884606e-03  0 
 -6.751049e-03  -8.727070e-03  0 
 -6.048886e-03  -8.718536e-03  0 
 -5.352763e-03  -8.697690e-03  0 
 -4.686906e-03  -8.643222e-03  0 
 -4.106867e-03  -8.505920e-03  0 
 -5.976934e-03  -6.676739e-03  0 
 -4.886292e-03  -5.939799e-03  0 
 -4.921789e-03  -7.416192e-03  0 
 -6.342490e-03  -5.544031e-03  0 
 -6.322379e-03  -8.080973e-03  0 
 -3.671291e-03  -5.395906e-03  0 
 -3.946910e-03  -7.798193e-03  0 
 -6.814198e-03  -5.142792e-03  0 
 -4.151197e-03  -7.152841e-03  0 
 -4.073442e-03  -6.232693e-03  0 
 -4.823600e-03  -6.718245e-03  0 
 -6.608415e-03  -6.598697e-03  0 
 -5.595984e-03  -7.686440e-03  0 
 -5.642336e-03  -5.672475e-03  0 
 -5.493075e-03  -6.380564e-03  0 
 -5.076128e-03  -5.123943e-03  0 
 -5.508741e-03  -7.014879e-03  0 
 -4.961370e-03  -8.089235e-03  0 
 -6.301810e-03  -7.226401e-03  0 
 -6.158764e-03  -6.118099e-03  0 
 -6.880828e-03  -5.899600e-03  0 
 -4.194908e-03  -4.860391e-03  0 
 -4.312801e-03  -8.196598e-03  0 
 -4.471736e-03  -7.713668e-03  0 
 -6.006727e-03  -5.016208e-03  0 
 -4.403440e-03  -5.558233e-03  0 
 -6.959109e-03  -7.662782e-03  0 
 -6.951290e-03  -7.081911e-03  0 
 -3.467038e-03  -4.671034e-03  0 
 -7.011095e-03  -8.238313e-03  0 
 -3.934811e-03  -8.220114e-03  0 
 -5.652985e-03  -8.254789e-03  0 
VECTORS displacement_ITER11 FLOAT
 -7.374521e-03  -4.619517e-03  0 
 -7.469775e-03  -8.737725e-03  0 
 -2.535480e-03  -3.667587e-03  0 
 -3.864582e-03  -8.312735e-03  0 
 -7.398727e-03  -5.269007e-03  0 
 -7.422040e-03  -5.941455e-03  0 
 -7.442105e-03  -6.619796e-03  0 
 -7.455118e-03  -7.316317e-03  0 
 -7.464101e-03  -8.023384e-03  0 
 -6.716735e-03  -4.583794e-03  0 
 -6.037777e-03  -4.530204e-03  0 
 -5.346485e-03  -4.453869e-03  0 
 -4.606649e-03  -4.328183e-03  0 
 -3.763326e-03  -4.085930e-03  0 
 -2.859985e-03  -4.903879e-03  0 
 -3.081669e-03  -5.801769e-03  0 
 -3.218012e-03  -6.577150e-03  0 
 -3.350943e-03  -7.271739e-03  0 
 -3.553441e-03  -7.886665e-03  0 
 -6.757798e-03  -8.730650e-03  0 
 -6.052760e-03  -8.722348e-03  0 
 -5.353835e-03  -8.701944e-03  0 
 -4.685011e-03  -8.647760e-03  0 
 -4.101879e-03  -8.510865e-03  0 
 -5.980676e-03  -6.672428e-03  0 
 -4.885548e-03  -5.932404e-03  0 
 -4.921195e-03  -7.414937e-03  0 
 -6.347722e-03  -5.535161e-03  0 
 -6.327477e-03  -8.082227e-03  0 
 -3.666287e-03  -5.386694e-03  0 
 -3.941436e-03  -7.798916e-03  0 
 -6.821283e-03  -5.132378e-03  0 
 -4.147159e-03  -7.150460e-03  0 
 -4.069482e-03  -6.226433e-03  0 
 -4.822603e-03  -6.713922e-03  0 
 -6.614640e-03  -6.594083e-03  0 
 -5.598241e-03  -7.686270e-03  0 
 -5.644710e-03  -5.664134e-03  0 
 -5.494849e-03  -6.375000e-03  0 
 -5.076086e-03  -5.113298e-03  0 
 -5.510630e-03  -7.011911e-03  0 
 -4.960902e-03  -8.090989e-03  0 
 -6.306848e-03  -7.224320e-03  0 
 -6.163222e-03  -6.111544e-03  0 
 -6.888156e-03  -5.892124e-03  0 
 -4.191759e-03  -4.849208e-03  0 
 -4.309245e-03  -8.199249e-03  0 
 -4.469078e-03  -7.713813e-03  0 
 -6.010661e-03  -5.005254e-03  0 
 -4.400859e-03  -5.549384e-03  0 
 -6.966636e-03  -7.662398e-03  0 
 -6.958824e-03  -7.079225e-03  0 
 -3.461571e-03  -4.659410e-03  0 
 -7.018775e-03  -8.240108e-03  0 
 -3.928769e-03  -8.223260e-03  0 
 -5.655401e-03  -8.256984e-03  0 
VECTORS displacement_ITER12 FLOAT
 -7.365518e-03  -4.623332e-03  0 
 -7.461531e-03  -8.740408e-03  0 
 -2.529067e-03  -3.672553e-03  0 
 -3.856906e-03  -8.314165e-03  0 
 -7.389812e-03  -5.272362e-03  0 
 -7.413219e-03  -5.944528e-03  0 
 -7.433379e-03  -6.622591e-03  0 
 -7.446492e-03  -7.318939e-03  0 
 -7.455627e-03  -8.025907e-03  0 
 -6.708186e-03  -4.587436e-03  0 
 -6.029506e-03  -4.533841e-03  0 
 -5.338575e-03  -4.457699e-03  0 
 -4.599093e-03  -4.332244e-03  0 
 -3.756281e-03  -4.090246e-03  0 
 -2.853280e-03  -4.907801e-03  0 
 -3.074900e-03  -5.805159e-03  0 
 -3.210921e-03  -6.580069e-03  0 
 -3.343613e-03  -7.274266e-03  0 
 -3.545948e-03  -7.889032e-03  0 
 -6.749379e-03  -8.733034e-03  0 
 -6.044471e-03  -8.724559e-03  0 
 -5.345760e-03  -8.704111e-03  0 
 -4.677110e-03  -8.649842e-03  0 
 -4.093943e-03  -8.512798e-03  0 
 -5.972360e-03  -6.675148e-03  0 
 -4.877663e-03  -5.935501e-03  0 
 -4.913189e-03  -7.417333e-03  0 
 -6.339312e-03  -5.538339e-03  0 
 -6.319089e-03  -8.084601e-03  0 
 -3.659113e-03  -5.390334e-03  0 
 -3.933722e-03  -7.801168e-03  0 
 -6.812697e-03  -5.135746e-03  0 
 -4.139463e-03  -7.152964e-03  0 
 -4.061960e-03  -6.229433e-03  0 
 -4.814678e-03  -6.716613e-03  0 
 -6.606148e-03  -6.596839e-03  0 
 -5.590047e-03  -7.688668e-03  0 
 -5.636532e-03  -5.667288e-03  0 
 -5.486688e-03  -6.377838e-03  0 
 -5.068204e-03  -5.116819e-03  0 
 -5.502450e-03  -7.014491e-03  0 
 -4.952901e-03  -8.093199e-03  0 
 -6.298450e-03  -7.226875e-03  0 
 -6.154857e-03  -6.114476e-03  0 
 -6.879554e-03  -5.895133e-03  0 
 -4.184374e-03  -4.853043e-03  0 
 -4.301342e-03  -8.201288e-03  0 
 -4.461188e-03  -7.716070e-03  0 
 -6.002383e-03  -5.008675e-03  0 
 -4.393258e-03  -5.552769e-03  0 
 -6.958127e-03  -7.664879e-03  0 
 -6.950271e-03  -7.081849e-03  0 
 -3.454541e-03  -4.663496e-03  0 
 -7.010312e-03  -8.242533e-03  0 
 -3.920896e-03  -8.225269e-03  0 
 -5.647219e-03  -8.259261e-03  0 
VECTORS displacement_ITER13 FLOAT
 -7.358757e-03  -4.620754e-03  0 
 -7.454997e-03  -8.737882e-03  0 
 -2.522097e-03  -3.669593e-03  0 
 -3.850614e-03  -8.310553e-03  0 
 -7.383043e-03  -5.269660e-03  0 
 -7.406456e-03  -5.941790e-03  0 
 -7.426625e-03  -6.619819e-03  0 
 -7.439760e-03  -7.316161e-03  0 
 -7.448952e-03  -8.023151e-03  0 
 -6.701437e-03  -4.584736e-03  0 
 -6.022695e-03  -4.531025e-03  0 
 -5.331840e-03  -4.454978e-03  0 
 -4.592198e-03  -4.329365e-03  0 
 -3.749501e-03  -4.087428e-03  0 
 -2.846478e-03  -4.904836e-03  0 
 -3.068198e-03  -5.802196e-03  0 
 -3.204378e-03  -6.577195e-03  0 
 -3.337185e-03  -7.271411e-03  0 
 -3.539636e-03  -7.885975e-03  0 
 -6.742588e-03  -8.730307e-03  0 
 -6.037804e-03  -8.721694e-03  0 
 -5.339103e-03  -8.701184e-03  0 
 -4.670521e-03  -8.646808e-03  0 
 -4.087494e-03  -8.509700e-03  0 
 -5.965616e-03  -6.672386e-03  0 
 -4.870942e-03  -5.932746e-03  0 
 -4.906506e-03  -7.414498e-03  0 
 -6.332571e-03  -5.535614e-03  0 
 -6.312334e-03  -8.081823e-03  0 
 -3.652345e-03  -5.387458e-03  0 
 -3.927173e-03  -7.798214e-03  0 
 -6.805972e-03  -5.133047e-03  0 
 -4.132854e-03  -7.150135e-03  0 
 -4.055290e-03  -6.226645e-03  0 
 -4.807985e-03  -6.713835e-03  0 
 -6.599401e-03  -6.594074e-03  0 
 -5.583327e-03  -7.685847e-03  0 
 -5.629771e-03  -5.664541e-03  0 
 -5.479950e-03  -6.375082e-03  0 
 -5.061460e-03  -5.114091e-03  0 
 -5.495721e-03  -7.011705e-03  0 
 -4.946239e-03  -8.090286e-03  0 
 -6.291698e-03  -7.224093e-03  0 
 -6.148114e-03  -6.111735e-03  0 
 -6.872813e-03  -5.892390e-03  0 
 -4.177554e-03  -4.850175e-03  0 
 -4.294783e-03  -8.198282e-03  0 
 -4.454569e-03  -7.713172e-03  0 
 -5.995601e-03  -5.005906e-03  0 
 -4.386524e-03  -5.549988e-03  0 
 -6.951381e-03  -7.662087e-03  0 
 -6.943523e-03  -7.079065e-03  0 
 -3.447738e-03  -4.660647e-03  0 
 -7.003564e-03  -8.239757e-03  0 
 -3.914384e-03  -8.222112e-03  0 
 -5.640531e-03  -8.256388e-03  0 
VECTORS displacement_ITER14 FLOAT
 -7.352879e-03  -4.622298e-03  0 
 -7.449478e-03  -8.739102e-03  0 
 -2.516398e-03  -3.670942e-03  0 
 -3.845819e-03  -8.310754e-03  0 
 -7.377209e-03  -5.271057e-03  0 
 -7.400651e-03  -5.943064e-03  0 
 -7.420846e-03  -6.620964e-03  0 
 -7.434009e-03  -7.317222e-03  0 
 -7.443269e-03  -8.024173e-03  0 
 -6.695799e-03  -4.586295e-03  0 
 -6.017250e-03  -4.532613e-03  0 
 -5.326457e-03  -4.456609e-03  0 
 -4.586905e-03  -4.330969e-03  0 
 -3.744271e-03  -4.088875e-03  0 
 -2.841162e-03  -4.906361e-03  0 
 -3.062987e-03  -5.803655e-03  0 
 -3.199318e-03  -6.578436e-03  0 
 -3.332159e-03  -7.272382e-03  0 
 -3.534751e-03  -7.886702e-03  0 
 -6.736829e-03  -8.731306e-03  0 
 -6.032217e-03  -8.722565e-03  0 
 -5.333613e-03  -8.701948e-03  0 
 -4.665233e-03  -8.647518e-03  0 
 -4.082436e-03  -8.510266e-03  0 
 -5.960037e-03  -6.673576e-03  0 
 -4.865574e-03  -5.934148e-03  0 
 -4.901088e-03  -7.415589e-03  0 
 -6.326987e-03  -5.536964e-03  0 
 -6.306648e-03  -8.082824e-03  0 
 -3.647052e-03  -5.389018e-03  0 
 -3.922034e-03  -7.799113e-03  0 
 -6.800287e-03  -5.134460e-03  0 
 -4.127593e-03  -7.151275e-03  0 
 -4.049998e-03  -6.228078e-03  0 
 -4.802583e-03  -6.715108e-03  0 
 -6.593733e-03  -6.595233e-03  0 
 -5.577769e-03  -7.686884e-03  0 
 -5.624313e-03  -5.665930e-03  0 
 -5.474467e-03  -6.376360e-03  0 
 -5.056106e-03  -5.115602e-03  0 
 -5.490199e-03  -7.012873e-03  0 
 -4.940829e-03  -8.091199e-03  0 
 -6.286044e-03  -7.225180e-03  0 
 -6.142536e-03  -6.112997e-03  0 
 -6.867113e-03  -5.893649e-03  0 
 -4.172309e-03  -4.851716e-03  0 
 -4.289563e-03  -8.199070e-03  0 
 -4.449262e-03  -7.714158e-03  0 
 -5.990126e-03  -5.007401e-03  0 
 -4.381233e-03  -5.551479e-03  0 
 -6.945660e-03  -7.663099e-03  0 
 -6.937807e-03  -7.080146e-03  0 
 -3.442407e-03  -4.662258e-03  0 
 -6.997835e-03  -8.240738e-03  0 
 -3.909319e-03  -8.222752e-03  0 
 -5.634973e-03  -8.257290e-03  0 
VECTORS displacement_ITER15 FLOAT
 -7.357212e-03  -4.621156e-03  0 