# vtk DataFile Version 3.1
this is an vtk file created by FEMAC
ASCII
DATASET UNSTRUCTURED_GRID
POINTS 58 FLOAT
5.000000 1.000000 0.000000
5.000000 2.000000 0.000000
6.000000 1.000000 0.000000
6.000000 2.000000 0.000000
5.000000 1.166667 0.000000
5.000000 1.333333 0.000000
5.000000 1.500000 0.000000
5.000000 1.666667 0.000000
5.000000 1.833333 0.000000
5.166667 1.000000 0.000000
5.333333 1.000000 0.000000
5.500000 1.000000 0.000000
5.666667 1.000000 0.000000
5.833333 1.000000 0.000000
5.166667 2.000000 0.000000
5.333333 2.000000 0.000000
5.500000 2.000000 0.000000
5.666667 2.000000 0.000000
5.833333 2.000000 0.000000
6.000000 1.166667 0.000000
6.000000 1.333333 0.000000
6.000000 1.500000 0.000000
6.000000 1.666667 0.000000
6.000000 1.833333 0.000000
5.500000 1.504630 0.000000
5.741187 1.704269 0.000000
5.270977 1.680984 0.000000
5.767940 1.105257 0.000000
5.232060 1.105257 0.000000
5.905541 1.741291 0.000000
5.134312 1.756801 0.000000
5.500000 1.331126 0.000000
5.545326 1.693267 0.000000
5.255393 1.534459 0.000000
5.747040 1.539116 0.000000
5.345931 1.428455 0.000000
5.654475 1.429231 0.000000
5.869851 1.585520 0.000000
5.130149 1.585520 0.000000
5.388055 1.603650 0.000000
5.623277 1.575050 0.000000
5.671883 1.880784 0.000000
5.271332 1.855120 0.000000
5.873523 1.219009 0.000000
5.126477 1.219009 0.000000
5.321487 1.250386 0.000000
5.678571 1.250496 0.000000
5.831923 1.408101 0.000000
5.168491 1.407309 0.000000
5.500010 1.176749 0.000000
5.622637 1.106501 0.000000
5.377378 1.106478 0.000000
5.455430 1.868212 0.000000
5.386224 1.740247 0.000000
5.894959 1.098187 0.000000
5.105041 1.098187 0.000000
5.858657 1.859946 0.000000
5.114462 1.889051 0.000000
CELLS 90 360 
3 30  8  7
3 23 29 22
3 13 27 12
3 28  9 10
3 24 35 31
3 36 24 31
3 37 22 29
3 25 37 29
3 7 38 30
3 38 26 30
3 39 24 32
3 39 26 33
3 24 40 32
3 25 40 34
3 40 25 32
3 17 41 18
3 42 15 14
3 20 43 19
3 44  5  4
3 28 45 44
3 46 27 43
3 20 47 43
3 48  5 44
3 39 35 24
3 33 35 39
3 36 40 24
3 36 34 40
3 6 38  7
3 33 26 38
3 37 21 22
3 25 34 37
3 48  6  5
3 6 48 38
3 33 38 48
3 21 47 20
3 47 21 37
3 37 34 47
3 26 42 30
3 16 41 17
3 25 41 32
3 45 31 35
3 31 46 36
3 31 49 46
3 49 31 45
3 50 11 12
3 50 46 49
3 11 50 49
3 11 51 10
3 45 51 49
3 51 11 49
3 16 52 41
3 52 32 41
3 42 53 52
3 53 42 26
3 53 32 52
3 54 13  2
3 19 54  2
3 13 54 27
3 55  4  0
3 55  9 28
3 9 55  0
3 18 56  3
3 56 23  3
3 8 57  1
3 57 14  1
3 39 53 26
3 39 32 53
3 15 52 16
3 15 42 52
3 51 28 10
3 45 28 51
3 27 50 12
3 27 46 50
3 43 54 19
3 43 27 54
3 55 44  4
3 28 44 55
3 14 57 42
3 57 30 42
3 30 57  8
3 56 18 41
3 56 29 23
3 56 25 29
3 41 25 56
3 48 35 33
3 45 35 48
3 48 44 45
3 36 47 34
3 36 46 47
3 43 47 46
CELL_TYPES 90
5 5 5 5 5 5 5 5 5 5 5 5 5 5 5 5 5 5 5 5 5 5 5 5 5 5 5 5 5 5 5 5 5 5 5 5 5 5 5 5 5 5 5 5 5 5 5 5 5 5 5 5 5 5 5 5 5 5 5 5 5 5 5 5 5 5 5 5 5 5 5 5 5 5 5 5 5 5 5 5 5 5 5 5 5 5 5 5 5 5 
POINT_DATA 58
VECTORS displacement_ITER1 FLOAT
 -9.346524e-03  -2.353336e-02  0 
 -3.055205e-03  -2.322161e-02  0 
 -9.447688e-03  -2.980969e-02  0 
 -3.080775e-03  -2.983650e-02  0 
 -8.343641e-03  -2.351733e-02  0 
 -7.311992e-03  -2.348557e-02  0 
 -6.264507e-03  -2.344857e-02  0 
 -5.210217e-03  -2.339762e-02  0 
 -4.141877e-03  -2.333005e-02  0 
 -9.376939e-03  -2.456724e-02  0 
 -9.402790e-03  -2.560509e-02  0 
 -9.423911e-03  -2.665253e-02  0 
 -9.439219e-03  -2.770491e-02  0 
 -9.448219e-03  -2.875966e-02  0 
 -3.059091e-03  -2.440944e-02  0 
 -3.069092e-03  -2.552369e-02  0 
 -3.078391e-03  -2.661612e-02  0 
 -3.081887e-03  -2.769207e-02  0 
 -3.084218e-03  -2.876709e-02  0 
 -8.396668e-03  -2.980691e-02  0 
 -7.341599e-03  -2.980415e-02  0 
 -6.281638e-03  -2.980902e-02  0 
 -5.218744e-03  -2.981956e-02  0 
 -4.151765e-03  -2.983024e-02  0 
 -6.260506e-03  -2.661579e-02  0 
 -4.985356e-03  -2.816528e-02  0 
 -5.143957e-03  -2.513480e-02  0 
 -8.779470e-03  -2.833771e-02  0 
 -8.737689e-03  -2.495554e-02  0 
 -4.743981e-03  -2.921989e-02  0 
 -4.653624e-03  -2.423311e-02  0 
 -7.349988e-03  -2.662311e-02  0 
 -5.061967e-03  -2.690669e-02  0 
 -6.068113e-03  -2.505571e-02  0 
 -6.037746e-03  -2.819641e-02  0 
 -6.736668e-03  -2.564049e-02  0 
 -6.734925e-03  -2.760373e-02  0 
 -5.740183e-03  -2.898315e-02  0 
 -5.739077e-03  -2.424951e-02  0 
 -5.635395e-03  -2.589504e-02  0 
 -5.811919e-03  -2.740501e-02  0 
 -3.852722e-03  -2.772710e-02  0 
 -4.025623e-03  -2.511973e-02  0 
 -8.063517e-03  -2.900361e-02  0 
 -8.029658e-03  -2.428677e-02  0 
 -7.846642e-03  -2.550094e-02  0 
 -7.860849e-03  -2.776143e-02  0 
 -6.868019e-03  -2.873526e-02  0 
 -6.861812e-03  -2.452545e-02  0 
 -8.315341e-03  -2.663346e-02  0 
 -8.764551e-03  -2.741642e-02  0 
 -8.744655e-03  -2.586680e-02  0 
 -3.936345e-03  -2.632877e-02  0 
 -4.764797e-03  -2.587732e-02  0 
 -8.827872e-03  -2.914513e-02  0 
 -8.766203e-03  -2.416679e-02  0 
 -3.983415e-03  -2.892453e-02  0 
 -3.802556e-03  -2.406364e-02  0 
VECTORS displacement_ITER2 FLOAT
 -6.693314e-03  -1.773875e-02  0 
 -2.164749e-03  -1.730521e-02  0 
 -6.846050e-03  -2.223163e-02  0 
 -2.204657e-03  -2.226291e-02  0 
 -6.015196e-03  -1.769557e-02  0 
 -5.282428e-03  -1.765101e-02  0 
 -4.528211e-03  -1.760480e-02  0 
 -3.763666e-03  -1.754472e-02  0 
 -2.981831e-03  -1.746061e-02  0 
 -6.744957e-03  -1.844748e-02  0 
 -6.781804e-03  -1.918399e-02  0 
 -6.809185e-03  -1.993701e-02  0 
 -6.828653e-03  -2.069883e-02  0 
 -6.841030e-03  -2.146542e-02  0 
 -2.178231e-03  -1.825998e-02  0 
 -2.193287e-03  -1.909722e-02  0 
 -2.204450e-03  -1.990278e-02  0 
 -2.207852e-03  -2.069068e-02  0 
 -2.209004e-03  -2.147787e-02  0 
 -6.078580e-03  -2.222236e-02  0 
 -5.313080e-03  -2.221779e-02  0 
 -4.542667e-03  -2.222427e-02  0 
 -3.769067e-03  -2.223828e-02  0 
 -2.989804e-03  -2.225317e-02  0 
 -4.534158e-03  -1.989787e-02  0 
 -3.603030e-03  -2.103264e-02  0 
 -3.726472e-03  -1.881259e-02  0 
 -6.353461e-03  -2.115411e-02  0 
 -6.302329e-03  -1.871128e-02  0 
 -3.424268e-03  -2.180357e-02  0 
 -3.367200e-03  -1.814221e-02  0 
 -5.318945e-03  -1.990453e-02  0 
 -3.662492e-03  -2.011248e-02  0 
 -4.394751e-03  -1.876384e-02  0 
 -4.368814e-03  -2.105103e-02  0 
 -4.877435e-03  -1.919137e-02  0 
 -4.875235e-03  -2.061724e-02  0 
 -4.150934e-03  -2.162570e-02  0 
 -4.153967e-03  -1.817424e-02  0 
 -4.082694e-03  -1.937135e-02  0 
 -4.206666e-03  -2.047457e-02  0 
 -2.774313e-03  -2.071611e-02  0 
 -2.907840e-03  -1.879671e-02  0 
 -5.835755e-03  -2.163685e-02  0 
 -5.798592e-03  -1.823075e-02  0 
 -5.672842e-03  -1.909574e-02  0 
 -5.687820e-03  -2.073179e-02  0 
 -4.970167e-03  -2.144085e-02  0 
 -4.965424e-03  -1.838912e-02  0 
 -6.011768e-03  -1.991492e-02  0 
 -6.339149e-03  -2.048498e-02  0 
 -6.314768e-03  -1.936456e-02  0 
 -2.837792e-03  -1.969210e-02  0 
 -3.448290e-03  -1.935721e-02  0 
 -6.390924e-03  -2.174236e-02  0 
 -6.313986e-03  -1.815404e-02  0 
 -2.868377e-03  -2.159083e-02  0 
 -2.743890e-03  -1.799775e-02  0 
VECTORS displacement_ITER3 FLOAT
 -5.729902e-03  -1.609592e-02  0 
 -2.294793e-03  -1.558624e-02  0 
 -5.921171e-03  -1.948565e-02  0 
 -2.332967e-03  -1.952021e-02  0 
 -5.257245e-03  -1.602222e-02  0 
 -4.705929e-03  -1.596357e-02  0 
 -4.130239e-03  -1.591116e-02  0 
 -3.543931e-03  -1.584993e-02  0 
 -2.938161e-03  -1.576337e-02  0 
 -5.799169e-03  -1.659136e-02  0 
 -5.846349e-03  -1.714276e-02  0 
 -5.878112e-03  -1.771688e-02  0 
 -5.899990e-03  -1.830234e-02  0 
 -5.913659e-03  -1.889277e-02  0 
 -2.308999e-03  -1.638691e-02  0 
 -2.323121e-03  -1.705379e-02  0 
 -2.333555e-03  -1.768502e-02  0 
 -2.336555e-03  -1.829799e-02  0 
 -2.337100e-03  -1.890982e-02  0 
 -5.327497e-03  -1.947309e-02  0 
 -4.738511e-03  -1.946780e-02  0 
 -4.144277e-03  -1.947532e-02  0 
 -3.546629e-03  -1.949159e-02  0 
 -2.942743e-03  -1.950871e-02  0 
 -4.143119e-03  -1.767648e-02  0 
 -3.421771e-03  -1.855896e-02  0 
 -3.522696e-03  -1.683167e-02  0 
 -5.536881e-03  -1.864951e-02  0 
 -5.480149e-03  -1.677748e-02  0 
 -3.280955e-03  -1.915736e-02  0 
 -3.243860e-03  -1.630392e-02  0 
 -4.742768e-03  -1.768289e-02  0 
 -3.470930e-03  -1.784414e-02  0 
 -4.035465e-03  -1.680110e-02  0 
 -4.013111e-03  -1.856944e-02  0 
 -4.405442e-03  -1.713333e-02  0 
 -4.403319e-03  -1.823248e-02  0 
 -3.843678e-03  -1.901511e-02  0 
 -3.847950e-03  -1.634244e-02  0 
 -3.797045e-03  -1.726786e-02  0 
 -3.889709e-03  -1.812359e-02  0 
 -2.778384e-03  -1.831700e-02  0 
 -2.889118e-03  -1.681489e-02  0 
 -5.139859e-03  -1.902061e-02  0 
 -5.101579e-03  -1.641246e-02  0 
 -5.010285e-03  -1.706440e-02  0 
 -5.025153e-03  -1.832080e-02  0 
 -4.475097e-03  -1.886857e-02  0 
 -4.470731e-03  -1.652042e-02  0 
 -5.269744e-03  -1.769293e-02  0 
 -5.523018e-03  -1.813374e-02  0 
 -5.495919e-03  -1.727384e-02  0 
 -2.830111e-03  -1.751968e-02  0 
 -3.307194e-03  -1.725527e-02  0 
 -5.567321e-03  -1.910398e-02  0 
 -5.481312e-03  -1.636461e-02  0 
 -2.849923e-03  -1.899534e-02  0 
 -2.762766e-03  -1.617654e-02  0 
VECTORS displacement_ITER4 FLOAT
 -4.990742e-03  -1.549061e-02  0 
 -2.195598e-03  -1.493628e-02  0 
 -5.205813e-03  -1.822761e-02  0 
 -2.238223e-03  -1.825826e-02  0 
 -4.640382e-03  -1.539336e-02  0 
 -4.194833e-03  -1.532808e-02  0 
 -3.722808e-03  -1.527301e-02  0 
 -3.239758e-03  -1.520935e-02  0 
 -2.738176e-03  -1.511787e-02  0 
 -5.072022e-03  -1.585672e-02  0 
 -5.124200e-03  -1.629915e-02  0 
 -5.157406e-03  -1.676810e-02  0 
 -5.180221e-03  -1.724854e-02  0 
 -5.195372e-03  -1.773389e-02  0 
 -2.209230e-03  -1.564037e-02  0 
 -2.226185e-03  -1.620477e-02  0 
 -2.238519e-03  -1.673262e-02  0 
 -2.242856e-03  -1.724304e-02  0 
 -2.243254e-03  -1.775147e-02  0 
 -4.712651e-03  -1.821098e-02  0 
 -4.228039e-03  -1.820489e-02  0 
 -3.738311e-03  -1.821248e-02  0 
 -3.245009e-03  -1.822903e-02  0 
 -2.745005e-03  -1.824655e-02  0 
 -3.740572e-03  -1.672640e-02  0 
 -3.143630e-03  -1.745810e-02  0 
 -3.229798e-03  -1.602292e-02  0 
 -4.883753e-03  -1.753131e-02  0 
 -4.825185e-03  -1.599757e-02  0 
 -3.025953e-03  -1.795384e-02  0 
 -2.997515e-03  -1.557808e-02  0 
 -4.231453e-03  -1.673306e-02  0 
 -3.185843e-03  -1.686577e-02  0 
 -3.651133e-03  -1.600379e-02  0 
 -3.631802e-03  -1.746501e-02  0 
 -3.955125e-03  -1.628007e-02  0 
 -3.953387e-03  -1.718582e-02  0 
 -3.491366e-03  -1.783385e-02  0 
 -3.494525e-03  -1.562227e-02  0 
 -3.456303e-03  -1.638729e-02  0 
 -3.530923e-03  -1.709657e-02  0 
 -2.610329e-03  -1.725923e-02  0 
 -2.703302e-03  -1.600542e-02  0 
 -4.557664e-03  -1.783685e-02  0 
 -4.519705e-03  -1.570011e-02  0 
 -4.448221e-03  -1.622733e-02  0 
 -4.462918e-03  -1.725869e-02  0 
 -4.011608e-03  -1.771088e-02  0 
 -4.006857e-03  -1.577894e-02  0 
 -4.660906e-03  -1.674306e-02  0 
 -4.870229e-03  -1.710702e-02  0 
 -4.842094e-03  -1.640164e-02  0 
 -2.653183e-03  -1.659633e-02  0 
 -3.050911e-03  -1.637539e-02  0 
 -4.909812e-03  -1.790686e-02  0 
 -4.821020e-03  -1.566904e-02  0 
 -2.668796e-03  -1.782092e-02  0 
 -2.597380e-03  -1.546101e-02  0 
VECTORS displacement_ITER5 FLOAT
 -4.897095e-03  -1.532866e-02  0 
 -2.251049e-03  -1.477255e-02  0 
 -5.120040e-03  -1.792543e-02  0 
 -2.297841e-03  -1.793930e-02  0 
 -4.570413e-03  -1.522798e-02  0 
 -4.149534e-03  -1.516309e-02  0 
 -3.702973e-03  -1.510896e-02  0 
 -3.244551e-03  -1.504515e-02  0 
 -2.766737e-03  -1.495284e-02  0 
 -4.979097e-03  -1.566770e-02  0 
 -5.031772e-03  -1.608507e-02  0 
 -5.064883e-03  -1.653016e-02  0 
 -5.088224e-03  -1.698633e-02  0 
 -5.105796e-03  -1.744853e-02  0 
 -2.262623e-03  -1.545133e-02  0 
 -2.280045e-03  -1.599149e-02  0 
 -2.293494e-03  -1.649558e-02  0 
 -2.298897e-03  -1.697943e-02  0 
 -2.301086e-03  -1.746165e-02  0 
 -4.644954e-03  -1.790308e-02  0 
 -4.183645e-03  -1.789464e-02  0 
 -3.718316e-03  -1.790079e-02  0 
 -3.249953e-03  -1.791560e-02  0 
 -2.776088e-03  -1.793051e-02  0 
 -3.720897e-03  -1.648823e-02  0 
 -3.153599e-03  -1.718416e-02  0 
 -3.236755e-03  -1.581893e-02  0 
 -4.807175e-03  -1.725407e-02  0 
 -4.747671e-03  -1.579872e-02  0 
 -3.041956e-03  -1.765424e-02  0 
 -3.015582e-03  -1.539399e-02  0 
 -4.186513e-03  -1.649471e-02  0 
 -3.194230e-03  -1.662141e-02  0 
 -3.636150e-03  -1.580158e-02  0 
 -3.617038e-03  -1.719050e-02  0 
 -3.924341e-03  -1.606437e-02  0 
 -3.922571e-03  -1.692496e-02  0 
 -3.483620e-03  -1.754080e-02  0 
 -3.487394e-03  -1.543884e-02  0 
 -3.451502e-03  -1.616585e-02  0 
 -3.521520e-03  -1.684036e-02  0 
 -2.647489e-03  -1.699588e-02  0 
 -2.735952e-03  -1.580142e-02  0 
 -4.496668e-03  -1.754517e-02  0 
 -4.457933e-03  -1.551657e-02  0 
 -4.391462e-03  -1.601520e-02  0 
 -4.406439e-03  -1.699434e-02  0 
 -3.977674e-03  -1.742440e-02  0 
 -3.972804e-03  -1.558918e-02  0 
 -4.593830e-03  -1.650476e-02  0 
 -4.793379e-03  -1.685093e-02  0 
 -4.764754e-03  -1.618140e-02  0 
 -2.688189e-03  -1.636581e-02  0 
 -3.066632e-03  -1.615474e-02  0 
 -4.832760e-03  -1.761294e-02  0 
 -4.742348e-03  -1.548931e-02  0 
 -2.703298e-03  -1.752808e-02  0 
 -2.634641e-03  -1.527900e-02  0 
VECTORS displacement_ITER6 FLOAT
 -4.891091e-03  -1.519906e-02  0 
 -2.281148e-03  -1.464022e-02  0 
 -5.111330e-03  -1.775420e-02  0 
 -2.325489e-03  -1.777290e-02  0 
 -4.570123e-03  -1.509633e-02  0 
 -4.154647e-03  -1.503138e-02  0 
 -3.713908e-03  -1.497735e-02  0 
 -3.262416e-03  -1.491279e-02  0 
 -2.790069e-03  -1.482039e-02  0 
 -4.972350e-03  -1.553013e-02  0 
 -5.024894e-03  -1.594083e-02  0 
 -5.057307e-03  -1.637966e-02  0 
 -5.080339e-03  -1.682941e-02  0 
 -5.097821e-03  -1.728503e-02  0 
 -2.292155e-03  -1.531242e-02  0 
 -2.309455e-03  -1.584675e-02  0 
 -2.322859e-03  -1.634509e-02  0 
 -2.327731e-03  -1.682272e-02  0 
 -2.329547e-03  -1.729943e-02  0 
 -4.643710e-03  -1.773299e-02  0 
 -4.188928e-03  -1.772515e-02  0 
 -3.729917e-03  -1.773187e-02  0 
 -3.267592e-03  -1.774728e-02  0 
 -2.799217e-03  -1.776308e-02  0 
 -3.732782e-03  -1.633781e-02  0 
 -3.172687e-03  -1.702487e-02  0 
 -3.254865e-03  -1.567668e-02  0 
 -4.803574e-03  -1.709326e-02  0 
 -4.745085e-03  -1.565880e-02  0 
 -3.062272e-03  -1.748936e-02  0 
 -3.036422e-03  -1.525674e-02  0 
 -4.192044e-03  -1.634456e-02  0 
 -3.212845e-03  -1.646905e-02  0 
 -3.648975e-03  -1.566007e-02  0 
 -3.630276e-03  -1.703100e-02  0 
 -3.933317e-03  -1.591979e-02  0 
 -3.931778e-03  -1.676888e-02  0 
 -3.498504e-03  -1.737689e-02  0 
 -3.502049e-03  -1.530177e-02  0 
 -3.466877e-03  -1.601939e-02  0 
 -3.536010e-03  -1.668535e-02  0 
 -2.672468e-03  -1.683883e-02  0 
 -2.760348e-03  -1.565893e-02  0 
 -4.497630e-03  -1.738031e-02  0 
 -4.459367e-03  -1.538070e-02  0 
 -4.393936e-03  -1.587204e-02  0 
 -4.408792e-03  -1.683723e-02  0 
 -3.986025e-03  -1.726156e-02  0 
 -3.980666e-03  -1.545138e-02  0 
 -4.593377e-03  -1.635464e-02  0 
 -4.789929e-03  -1.669588e-02  0 
 -4.761787e-03  -1.603593e-02  0 
 -2.712954e-03  -1.621677e-02  0 
 -3.086924e-03  -1.600819e-02  0 
 -4.828815e-03  -1.744705e-02  0 
 -4.739914e-03  -1.535453e-02  0 
 -2.727537e-03  -1.736483e-02  0 
 -2.660160e-03  -1.514208e-02  0 
VECTORS displacement_ITER7 FLOAT
 -4.908797e-03  -1.510959e-02  0 
 -2.273910e-03  -1.454674e-02  0 
 -5.123502e-03  -1.767968e-02  0 
 -2.322068e-03  -1.770262e-02  0 
 -4.582237e-03  -1.500812e-02  0 
 -4.163779e-03  -1.494335e-02  0 
 -3.719853e-03  -1.488846e-02  0 
 -3.265014e-03  -1.482271e-02  0 
 -2.788767e-03  -1.472927e-02  0 
 -4.988243e-03  -1.544542e-02  0 
 -5.040143e-03  -1.585919e-02  0 
 -5.072217e-03  -1.630066e-02  0 
 -5.094985e-03  -1.675270e-02  0 
 -5.111604e-03  -1.721066e-02  0 
 -2.286628e-03  -1.522522e-02  0 
 -2.304966e-03  -1.576276e-02  0 
 -2.318862e-03  -1.626413e-02  0 
 -2.324375e-03  -1.674570e-02  0 
 -2.326302e-03  -1.722583e-02  0 
 -4.655582e-03  -1.766084e-02  0 
 -4.198295e-03  -1.765401e-02  0 
 -3.736340e-03  -1.766126e-02  0 
 -3.270891e-03  -1.767691e-02  0 
 -2.799252e-03  -1.769281e-02  0 
 -3.739154e-03  -1.625834e-02  0 
 -3.175237e-03  -1.694964e-02  0 
 -3.257481e-03  -1.559244e-02  0 
 -4.816502e-03  -1.701837e-02  0 
 -4.758638e-03  -1.557549e-02  0 
 -3.064131e-03  -1.741721e-02  0 
 -3.037216e-03  -1.516937e-02  0 
 -4.201622e-03  -1.626532e-02  0 
 -3.215490e-03  -1.639027e-02  0 
 -3.654637e-03  -1.557590e-02  0 
 -3.636058e-03  -1.695591e-02  0 
 -3.941063e-03  -1.583760e-02  0 
 -3.939618e-03  -1.669222e-02  0 
 -3.503387e-03  -1.730405e-02  0 
 -3.506582e-03  -1.521492e-02  0 
 -3.471238e-03  -1.593769e-02  0 
 -3.541048e-03  -1.660806e-02  0 
 -2.671525e-03  -1.676218e-02  0 
 -2.758922e-03  -1.557445e-02  0 
 -4.508998e-03  -1.730690e-02  0 
 -4.470575e-03  -1.529509e-02  0 
 -4.404831e-03  -1.578990e-02  0 
 -4.419743e-03  -1.676103e-02  0 
 -3.994268e-03  -1.718785e-02  0 
 -3.988646e-03  -1.536599e-02  0 
 -4.605579e-03  -1.627562e-02  0 
 -4.803086e-03  -1.661872e-02  0 
 -4.775212e-03  -1.595500e-02  0 
 -2.711707e-03  -1.613564e-02  0 
 -3.088280e-03  -1.592620e-02  0 
 -4.841612e-03  -1.737362e-02  0 
 -4.753748e-03  -1.526884e-02  0 
 -2.727041e-03  -1.729172e-02  0 
 -2.657653e-03  -1.505390e-02  0 
VECTORS displacement_ITER8 FLOAT
 -4.971635e-03  -1.508136e-02  0 
 -2.267414e-03  -1.452191e-02  0 
 -5.183748e-03  -1.772043e-02  0 
 -2.320010e-03  -1.774033e-02  0 
 -4.631313e-03  -1.498366e-02  0 
 -4.202370e-03  -1.491979e-02  0 
 -3.748005e-03  -1.486499e-02  0 
 -3.282209e-03  -1.479933e-02  0 
 -2.795247e-03  -1.470536e-02  0 
 -5.049201e-03  -1.543184e-02  0 
 -5.100405e-03  -1.585698e-02  0 
 -5.132508e-03  -1.630923e-02  0 
 -5.155381e-03  -1.677172e-02  0 
 -5.171977e-03  -1.724068e-02  0 
 -2.281705e-03  -1.521218e-02  0 
 -2.300754e-03  -1.576035e-02  0 
 -2.314950e-03  -1.627231e-02  0 
 -2.321002e-03  -1.676427e-02  0 
 -2.323455e-03  -1.725456e-02  0 
 -4.705100e-03  -1.770159e-02  0 
 -4.236953e-03  -1.769456e-02  0 
 -3.764255e-03  -1.770149e-02  0 
 -3.288226e-03  -1.771663e-02  0 
 -2.806450e-03  -1.773162e-02  0 
 -3.766623e-03  -1.626671e-02  0 
 -3.190014e-03  -1.697324e-02  0 
 -3.273813e-03  -1.558636e-02  0 
 -4.869945e-03  -1.704408e-02  0 
 -4.811882e-03  -1.556665e-02  0 
 -3.076703e-03  -1.745086e-02  0 
 -3.048702e-03  -1.515453e-02  0 
 -4.240242e-03  -1.627361e-02  0 
 -3.230947e-03  -1.640166e-02  0 
 -3.680296e-03  -1.556868e-02  0 
 -3.661293e-03  -1.697997e-02  0 
 -3.973462e-03  -1.583606e-02  0 
 -3.971906e-03  -1.671043e-02  0 
 -3.525704e-03  -1.733580e-02  0 
 -3.529073e-03  -1.519984e-02  0 
 -3.492439e-03  -1.593901e-02  0 
 -3.563984e-03  -1.662430e-02  0 
 -2.675393e-03  -1.678144e-02  0 
 -2.763892e-03  -1.556856e-02  0 
 -4.555038e-03  -1.733939e-02  0 
 -4.516205e-03  -1.527915e-02  0 
 -4.448618e-03  -1.578667e-02  0 
 -4.463673e-03  -1.678090e-02  0 
 -4.027980e-03  -1.721746e-02  0 
 -4.022483e-03  -1.535301e-02  0 
 -4.654318e-03  -1.628400e-02  0 
 -4.856482e-03  -1.663498e-02  0 
 -4.828469e-03  -1.595555e-02  0 
 -2.716112e-03  -1.614124e-02  0 
 -3.100718e-03  -1.592755e-02  0 
 -4.895553e-03  -1.740762e-02  0 
 -4.807450e-03  -1.525123e-02  0 
 -2.732349e-03  -1.732235e-02  0 
 -2.660157e-03  -1.503791e-02  0 
VECTORS displacement_ITER9 FLOAT
 -4.997557e-03  -1.506834e-02  0 
 -2.295490e-03  -1.450575e-02  0 
 -5.209455e-03  -1.770142e-02  0 
 -2.350020e-03  -1.772160e-02  0 
 -4.658536e-03  -1.496974e-02  0 
 -4.229909e-03  -1.490526e-02  0 
 -3.775678e-03  -1.485012e-02  0 
 -3.310212e-03  -1.478424e-02  0 
 -2.823808e-03  -1.468961e-02  0 
 -5.075091e-03  -1.541658e-02  0 
 -5.126218e-03  -1.584080e-02  0 
 -5.158355e-03  -1.629228e-02  0 
 -5.181076e-03  -1.675424e-02  0 
 -5.197435e-03  -1.722234e-02  0 
 -2.310640e-03  -1.519541e-02  0 
 -2.330017e-03  -1.574401e-02  0 
 -2.344463e-03  -1.625596e-02  0 
 -2.350462e-03  -1.674688e-02  0 
 -2.353138e-03  -1.723650e-02  0 
 -4.731419e-03  -1.768258e-02  0 
 -4.264086e-03  -1.767577e-02  0 
 -3.792079e-03  -1.768290e-02  0 
 -3.316694e-03  -1.769814e-02  0 
 -2.835558e-03  -1.771305e-02  0 
 -3.794633e-03  -1.625019e-02  0 
 -3.218635e-03  -1.695580e-02  0 
 -3.302288e-03  -1.557049e-02  0 
 -4.896094e-03  -1.702619e-02  0 
 -4.838504e-03  -1.555116e-02  0 
 -3.105439e-03  -1.743275e-02  0 
 -3.077252e-03  -1.513883e-02  0 
 -4.267609e-03  -1.625709e-02  0 
 -3.259517e-03  -1.638491e-02  0 
 -3.708324e-03  -1.555313e-02  0 
 -3.689363e-03  -1.696245e-02  0 
 -4.001216e-03  -1.582024e-02  0 
 -3.999602e-03  -1.669325e-02  0 
 -3.553898e-03  -1.731780e-02  0 
 -3.557062e-03  -1.518455e-02  0 
 -3.520745e-03  -1.592287e-02  0 
 -3.592208e-03  -1.660729e-02  0 
 -2.704478e-03  -1.676418e-02  0 
 -2.792842e-03  -1.555246e-02  0 
 -4.581707e-03  -1.732105e-02  0 
 -4.543549e-03  -1.526443e-02  0 
 -4.475835e-03  -1.577094e-02  0 
 -4.490556e-03  -1.676349e-02  0 
 -4.055512e-03  -1.719948e-02  0 
 -4.050203e-03  -1.533795e-02  0 
 -4.680961e-03  -1.626730e-02  0 
 -4.882697e-03  -1.661772e-02  0 
 -4.854911e-03  -1.593928e-02  0 
 -2.745218e-03  -1.612488e-02  0 
 -3.129445e-03  -1.591135e-02  0 
 -4.921594e-03  -1.738900e-02  0 
 -4.834260e-03  -1.523667e-02  0 
 -2.761512e-03  -1.730442e-02  0 
 -2.688745e-03  -1.502197e-02  0 
VECTORS displacement_ITER10 FLOAT
 -5.002603e-03  -1.505537e-02  0 
 -2.279352e-03  -1.449052e-02  0 
 -5.215711e-03  -1.770842e-02  0 
 -2.336133e-03  -1.772769e-02  0 
 -4.660986e-03  -1.495692e-02  0 
 -4.229083e-03  -1.489194e-02  0 
 -3.771609e-03  -1.483645e-02  0 
 -3.302750e-03  -1.477015e-02  0 
 -2.812547e-03  -1.467505e-02  0 
 -5.080613e-03  -1.540694e-02  0 
 -5.131855e-03  -1.583426e-02  0 
 -5.164324e-03  -1.628878e-02  0 
 -5.187149e-03  -1.675416e-02  0 
 -5.203664e-03  -1.722562e-02  0 
 -2.295400e-03  -1.518479e-02  0 
 -2.315116e-03  -1.573693e-02  0 
 -2.329800e-03  -1.625226e-02  0 
 -2.336194e-03  -1.674686e-02  0 
 -2.339168e-03  -1.723982e-02  0 
 -4.734093e-03  -1.768941e-02  0 
 -4.263290e-03  -1.768255e-02  0 
 -3.787854e-03  -1.768966e-02  0 
 -3.309101e-03  -1.770482e-02  0 
 -2.824709e-03  -1.771949e-02  0 
 -3.790446e-03  -1.624676e-02  0 
 -3.210259e-03  -1.695735e-02  0 
 -3.294486e-03  -1.556231e-02  0 
 -4.900046e-03  -1.702811e-02  0 
 -4.842108e-03  -1.554254e-02  0 
 -3.096332e-03  -1.743750e-02  0 
 -3.067814e-03  -1.512765e-02  0 
 -4.266959e-03  -1.625357e-02  0 
 -3.251418e-03  -1.638257e-02  0 
 -3.703639e-03  -1.554464e-02  0 
 -3.684355e-03  -1.696407e-02  0 
 -3.998655e-03  -1.581361e-02  0 
 -3.996888e-03  -1.669293e-02  0 
 -3.547921e-03  -1.732190e-02  0 
 -3.551332e-03  -1.517338e-02  0 
 -3.514573e-03  -1.591719e-02  0 
 -3.586502e-03  -1.660643e-02  0 
 -2.692604e-03  -1.676445e-02  0 
 -2.781117e-03  -1.554431e-02  0 
 -4.583275e-03  -1.732521e-02  0 
 -4.545043e-03  -1.525371e-02  0 
 -4.476809e-03  -1.576385e-02  0 
 -4.491495e-03  -1.676357e-02  0 
 -4.053177e-03  -1.720279e-02  0 
 -4.048072e-03  -1.532778e-02  0 
 -4.683379e-03  -1.626375e-02  0 
 -4.886571e-03  -1.661668e-02  0 
 -4.858651e-03  -1.593335e-02  0 
 -2.733371e-03  -1.612052e-02  0 
 -3.120300e-03  -1.590565e-02  0 
 -4.925692e-03  -1.739363e-02  0 
 -4.837824e-03  -1.522558e-02  0 
 -2.750060e-03  -1.730823e-02  0 
 -2.676121e-03  -1.501032e-02  0 
VECTORS displacement_ITER11 FLOAT
 -4.999382e-03  -1.504735e-02  0 
 -2.277014e-03  -1.447902e-02  0 
 -5.212906e-03  -1.769723e-02  0 
 -2.333584e-03  -1.771791e-02  0 
 -4.658754e-03  -1.494739e-02  0 
 -4.226922e-03  -1.488208e-02  0 
 -3.769384e-03  -1.482639e-02  0 
 -3.300590e-03  -1.475971e-02  0 
 -2.810125e-03  -1.466418e-02  0 
 -5.077821e-03  -1.539713e-02  0 
 -5.129201e-03  -1.582396e-02  0 
 -5.161643e-03  -1.627817e-02  0 
 -5.184382e-03  -1.674351e-02  0 
 -5.200901e-03  -1.721470e-02  0 
 -2.293010e-03  -1.517388e-02  0 
 -2.312775e-03  -1.572648e-02  0 
 -2.327540e-03  -1.624197e-02  0 
 -2.333894e-03  -1.673660e-02  0 
 -2.336827e-03  -1.722971e-02  0 
 -4.731541e-03  -1.767836e-02  0 
 -4.260948e-03  -1.767170e-02  0 
 -3.785646e-03  -1.767905e-02  0 
 -3.306942e-03  -1.769448e-02  0 
 -2.822456e-03  -1.770944e-02  0 
 -3.788437e-03  -1.623641e-02  0 
 -3.208202e-03  -1.694703e-02  0 
 -3.292461e-03  -1.555192e-02  0 
 -4.897474e-03  -1.701732e-02  0 
 -4.839774e-03  -1.553252e-02  0 
 -3.094205e-03  -1.742724e-02  0 
 -3.065690e-03  -1.511710e-02  0 
 -4.264831e-03  -1.624322e-02  0 
 -3.249403e-03  -1.637222e-02  0 
 -3.701621e-03  -1.553440e-02  0 
 -3.682296e-03  -1.695364e-02  0 
 -3.996608e-03  -1.580339e-02  0 
 -3.994804e-03  -1.668249e-02  0 
 -3.545827e-03  -1.731147e-02  0 
 -3.549256e-03  -1.516308e-02  0 
 -3.512584e-03  -1.590685e-02  0 
 -3.584484e-03  -1.659606e-02  0 
 -2.690436e-03  -1.675416e-02  0 
 -2.779026e-03  -1.553376e-02  0 
 -4.580850e-03  -1.731438e-02  0 
 -4.542904e-03  -1.524391e-02  0 
 -4.474645e-03  -1.575373e-02  0 
 -4.489188e-03  -1.675298e-02  0 
 -4.051000e-03  -1.719218e-02  0 
 -4.045977e-03  -1.531777e-02  0 
 -4.681005e-03  -1.625333e-02  0 
 -4.884012e-03  -1.660609e-02  0 
 -4.856234e-03  -1.592304e-02  0 
 -2.731235e-03  -1.611019e-02  0 
 -3.118284e-03  -1.589526e-02  0 
 -4.923077e-03  -1.738267e-02  0 
 -4.835544e-03  -1.521601e-02  0 
 -2.747864e-03  -1.729803e-02  0 
 -2.673900e-03  -1.499938e-02  0 
VECTORS displacement_ITER12 FLOAT
 -5.000472e-03  -1.503511e-02  0 
 -2.273919e-03  -1.446513e-02  0 
 -5.214370e-03  -1.768864e-02  0 
 -2.330144e-03  -1.771040e-02  0 
 -4.659396e-03  -1.493483e-02  0 
 -4.227044e-03  -1.486940e-02  0 
 -3.768899e-03  -1.481360e-02  0 
 -3.299374e-03  -1.474683e-02  0 
 -2.808124e-03  -1.465104e-02  0 
 -5.079108e-03  -1.538526e-02  0 
 -5.130659e-03  -1.581271e-02  0 
 -5.163152e-03  -1.626760e-02  0 
 -5.185936e-03  -1.673356e-02  0 
 -5.202468e-03  -1.720549e-02  0 
 -2.290048e-03  -1.516170e-02  0 
 -2.309884e-03  -1.571525e-02  0 
 -2.324618e-03  -1.623155e-02  0 
 -2.330800e-03  -1.672695e-02  0 
 -2.333533e-03  -1.722101e-02  0 
 -4.732394e-03  -1.766988e-02  0 
 -4.261080e-03  -1.766329e-02  0 
 -3.785030e-03  -1.767076e-02  0 
 -3.305526e-03  -1.768638e-02  0 
 -2.820131e-03  -1.770162e-02  0 
 -3.787904e-03  -1.622577e-02  0 
 -3.206698e-03  -1.693761e-02  0 
 -3.291200e-03  -1.554024e-02  0 
 -4.898594e-03  -1.700783e-02  0 
 -4.840767e-03  -1.552080e-02  0 
 -3.092453e-03  -1.741873e-02  0 
 -3.064115e-03  -1.510474e-02  0 
 -4.265023e-03  -1.623257e-02  0 
 -3.247982e-03  -1.636183e-02  0 
 -3.700976e-03  -1.552266e-02  0 
 -3.681569e-03  -1.694418e-02  0 
 -3.996403e-03  -1.579205e-02  0 
 -3.994579e-03  -1.667255e-02  0 
 -3.544862e-03  -1.730264e-02  0 
 -3.548410e-03  -1.515080e-02  0 
 -3.511628e-03  -1.589570e-02  0 
 -3.583611e-03  -1.658602e-02  0 
 -2.688006e-03  -1.674443e-02  0 
 -2.776941e-03  -1.552214e-02  0 
 -4.581492e-03  -1.730538e-02  0 
 -4.543451e-03  -1.523175e-02  0 
 -4.475132e-03  -1.574232e-02  0 
 -4.489717e-03  -1.674312e-02  0 
 -4.050844e-03  -1.718306e-02  0 
 -4.045855e-03  -1.530569e-02  0 
 -4.681821e-03  -1.624270e-02  0 
 -4.885132e-03  -1.659597e-02  0 
 -4.857284e-03  -1.591192e-02  0 
 -2.728982e-03  -1.609949e-02  0 
 -3.116702e-03  -1.588414e-02  0 
 -4.924220e-03  -1.737374e-02  0 
 -4.836491e-03  -1.520387e-02  0 
 -2.745478e-03  -1.728935e-02  0 
 -2.671700e-03  -1.498681e-02  0 
VECTORS displacement_ITER13 FLOAT
 -4.997112e-03  -1.502996e-02  0 
 -2.265672e-03  -1.445985e-02  0 
 -5.210721e-03  -1.768827e-02  0 
 -2.321877e-03  -1.771001e-02  0 
 -4.655005e-03  -1.492971e-02  0 
 -4.221904e-03  -1.486429e-02  0 
 -3.762918e-03  -1.480852e-02  0 
 -3.292513e-03  -1.474185e-02  0 
 -2.800539e-03  -1.464607e-02  0 
 -5.075658e-03  -1.538100e-02  0 
 -5.127206e-03  -1.580928e-02  0 
 -5.159605e-03  -1.626502e-02  0 
 -5.182363e-03  -1.673169e-02  0 
 -5.198854e-03  -1.720440e-02  0 
 -2.281680e-03  -1.515754e-02  0 
 -2.301535e-03  -1.571182e-02  0 
 -2.316294e-03  -1.622887e-02  0 
 -2.322517e-03  -1.672507e-02  0 
 -2.325241e-03  -1.721983e-02  0 
 -4.728014e-03  -1.766958e-02  0 
 -4.255925e-03  -1.766301e-02  0 
 -3.779088e-03  -1.767048e-02  0 
 -3.298797e-03  -1.768606e-02  0 
 -2.812625e-03  -1.770127e-02  0 
 -3.781908e-03  -1.622314e-02  0 
 -3.199764e-03  -1.693609e-02  0 
 -3.284341e-03  -1.553650e-02  0 
 -4.894515e-03  -1.700646e-02  0 
 -4.836756e-03  -1.551687e-02  0 
 -3.085364e-03  -1.741796e-02  0 
 -3.056887e-03  -1.510034e-02  0 
 -4.259866e-03  -1.622996e-02  0 
 -3.241088e-03  -1.635939e-02  0 
 -3.694801e-03  -1.551887e-02  0 
 -3.675425e-03  -1.694270e-02  0 
 -3.990761e-03  -1.578870e-02  0 
 -3.988958e-03  -1.667065e-02  0 
 -3.538504e-03  -1.730174e-02  0 
 -3.541967e-03  -1.514641e-02  0 
 -3.505144e-03  -1.589252e-02  0 
 -3.577287e-03  -1.658396e-02  0 
 -2.680246e-03  -1.674257e-02  0 
 -2.769292e-03  -1.551839e-02  0 
 -4.576879e-03  -1.730450e-02  0 
 -4.538842e-03  -1.522727e-02  0 
 -4.470367e-03  -1.573884e-02  0 
 -4.484963e-03  -1.674135e-02  0 
 -4.045336e-03  -1.718199e-02  0 
 -4.040324e-03  -1.530145e-02  0 
 -4.677435e-03  -1.624010e-02  0 
 -4.881074e-03  -1.659393e-02  0 
 -4.853247e-03  -1.590874e-02  0 
 -2.721262e-03  -1.609662e-02  0 
 -3.109580e-03  -1.588094e-02  0 
 -4.920160e-03  -1.737295e-02  0 
 -4.832514e-03  -1.519932e-02  0 
 -2.737836e-03  -1.728834e-02  0 
 -2.663952e-03  -1.498228e-02  0 
VECTORS displacement_ITER14 FLOAT
 -4.990783e-03  -1.502857e-02  0 
 -2.266761e-03  -1.445823e-02  0 
 -5.204227e-03  -1.767918e-02  0 
 -2.322658e-03  -1.770129e-02  0 
 -4.649918e-03  -1.492809e-02  0 
 -4.217997e-03  -1.486264e-02  0 
 -3.760187e-03  -1.480683e-02  0 
 -3.290962e-03  -1.474018e-02  0 
 -2.800188e-03  -1.464451e-02  0 
 -5.069328e-03  -1.537818e-02  0 
 -5.120850e-03  -1.580514e-02  0 
 -5.153199e-03  -1.625973e-02  0 
 -5.175945e-03  -1.672518e-02  0 
 -5.192372e-03  -1.719668e-02  0 
 -2.282618e-03  -1.515472e-02  0 
 -2.302432e-03  -1.570774e-02  0 
 -2.317170e-03  -1.622359e-02  0 
 -2.323374e-03  -1.671864e-02  0 
 -2.326044e-03  -1.721220e-02  0 
 -4.722821e-03  -1.766058e-02  0 
 -4.251978e-03  -1.765407e-02  0 
 -3.776362e-03  -1.766159e-02  0 
 -3.297277e-03  -1.767722e-02  0 
 -2.812279e-03  -1.769248e-02  0 
 -3.779230e-03  -1.621789e-02  0 
 -3.198531e-03  -1.692909e-02  0 
 -3.282904e-03  -1.553289e-02  0 
 -4.888868e-03  -1.699923e-02  0 
 -4.831224e-03  -1.551356e-02  0 