# vtk DataFile Version 3.1
this is an vtk file created by FEMAC
ASCII
DATASET UNSTRUCTURED_GRID
POINTS 57 FLOAT
3.000000 1.000000 0.000000
3.000000 2.000000 0.000000
4.000000 1.000000 0.000000
4.000000 2.000000 0.000000
3.000000 1.166667 0.000000
3.000000 1.333333 0.000000
3.000000 1.500000 0.000000
3.000000 1.666667 0.000000
3.000000 1.833333 0.000000
3.166667 1.000000 0.000000
3.333333 1.000000 0.000000
3.500000 1.000000 0.000000
3.666667 1.000000 0.000000
3.833333 1.000000 0.000000
3.166667 2.000000 0.000000
3.333333 2.000000 0.000000
3.500000 2.000000 0.000000
3.666667 2.000000 0.000000
3.833333 2.000000 0.000000
4.000000 1.166667 0.000000
4.000000 1.333333 0.000000
4.000000 1.500000 0.000000
4.000000 1.666667 0.000000
4.000000 1.833333 0.000000
3.445056 1.616016 0.000000
3.673189 1.288415 0.000000
3.304402 1.152122 0.000000
3.758740 1.136884 0.000000
3.259936 1.436547 0.000000
3.485316 1.792675 0.000000
3.734988 1.545389 0.000000
3.495301 1.250253 0.000000
3.368742 1.343595 0.000000
3.327592 1.745045 0.000000
3.459639 1.110019 0.000000
3.549673 1.452914 0.000000
3.610138 1.652015 0.000000
3.153763 1.683737 0.000000
3.635986 1.824546 0.000000
3.592316 1.129575 0.000000
3.836574 1.237817 0.000000
3.861261 1.681215 0.000000
3.808485 1.849762 0.000000
3.118772 1.415848 0.000000
3.117209 1.538753 0.000000
3.315385 1.595139 0.000000
3.745484 1.692575 0.000000
3.386422 1.499124 0.000000
3.175394 1.860875 0.000000
3.888949 1.118153 0.000000
3.827742 1.408140 0.000000
3.884798 1.560282 0.000000
3.696398 1.423714 0.000000
3.114631 1.153788 0.000000
3.194414 1.305872 0.000000
3.331384 1.899766 0.000000
3.910455 1.920774 0.000000
CELLS 88 352 
3 26  9 10
3 13 27 12
3 32 26 31
3 33 24 29
3 11 34 10
3 26 34 31
3 34 26 10
3 25 35 31
3 24 36 29
3 39 12 27
3 25 39 27
3 20 40 19
3 35 36 24
3 35 30 36
3 32 31 35
3 37  8  7
3 39 11 12
3 39 34 11
3 39 25 31
3 39 31 34
3 23 41 22
3 38 29 36
3 40 25 27
3 23 42 41
3 45 33 37
3 33 45 24
3 46 41 42
3 38 46 42
3 47 32 35
3 32 47 28
3 24 47 35
3 8 48  1
3 48 14  1
3 49 13  2
3 19 49  2
3 45 47 24
3 45 28 47
3 44  7  6
3 37  7 44
3 49 19 40
3 27 49 40
3 49 27 13
3 46 36 30
3 41 46 30
3 38 36 46
3 28 44 43
3 5 43  6
3 44  6 43
3 40 50 25
3 20 50 40
3 20 21 50
3 51 30 50
3 30 51 41
3 21 51 50
3 52 35 25
3 52 50 30
3 50 52 25
3 35 52 30
3 22 51 21
3 22 41 51
3 42 18 17
3 17 38 42
3 38 16 29
3 16 38 17
3 37 33 48
3 37 48  8
3 45 44 28
3 37 44 45
3 53  4  0
3 9 53  0
3 54 26 32
3 28 54 32
3 28 43 54
3 5 54 43
3 5  4 53
3 26 53  9
3 26 54 53
3 5 53 54
3 15 55 16
3 55 29 16
3 18 56  3
3 23 56 42
3 56 23  3
3 56 18 42
3 14 55 15
3 33 55 48
3 55 33 29
3 14 48 55
CELL_TYPES 88
5 5 5 5 5 5 5 5 5 5 5 5 5 5 5 5 5 5 5 5 5 5 5 5 5 5 5 5 5 5 5 5 5 5 5 5 5 5 5 5 5 5 5 5 5 5 5 5 5 5 5 5 5 5 5 5 5 5 5 5 5 5 5 5 5 5 5 5 5 5 5 5 5 5 5 5 5 5 5 5 5 5 5 5 5 5 5 5 
POINT_DATA 57
VECTORS displacement_ITER1 FLOAT
 -7.289185e-03  -1.058425e-02  0 
 -2.046633e-03  -9.808451e-03  0 
 -7.743724e-03  -1.625602e-02  0 
 -2.241200e-03  -1.623066e-02  0 
 -6.569572e-03  -1.056211e-02  0 
 -5.749375e-03  -1.051408e-02  0 
 -4.869510e-03  -1.041059e-02  0 
 -3.948032e-03  -1.026793e-02  0 
 -3.002408e-03  -1.008751e-02  0 
 -7.422194e-03  -1.145618e-02  0 
 -7.517456e-03  -1.234554e-02  0 
 -7.602032e-03  -1.325894e-02  0 
 -7.671660e-03  -1.420168e-02  0 
 -7.720835e-03  -1.519167e-02  0 
 -2.026360e-03  -1.104417e-02  0 
 -2.058074e-03  -1.212642e-02  0 
 -2.096025e-03  -1.316625e-02  0 
 -2.122486e-03  -1.415770e-02  0 
 -2.168220e-03  -1.514122e-02  0 
 -6.781387e-03  -1.612217e-02  0 
 -5.835060e-03  -1.605065e-02  0 
 -4.909781e-03  -1.602704e-02  0 
 -3.999146e-03  -1.604429e-02  0 
 -3.099593e-03  -1.609529e-02  0 
 -4.318064e-03  -1.286083e-02  0 
 -6.052939e-03  -1.417866e-02  0 
 -6.719448e-03  -1.212108e-02  0 
 -6.899635e-03  -1.470470e-02  0 
 -5.255252e-03  -1.184062e-02  0 
 -3.330243e-03  -1.309566e-02  0 
 -4.676512e-03  -1.454013e-02  0 
 -6.244995e-03  -1.316224e-02  0 
 -5.744160e-03  -1.244732e-02  0 
 -3.605691e-03  -1.214053e-02  0 
 -6.987918e-03  -1.299289e-02  0 
 -5.179755e-03  -1.346425e-02  0 
 -4.114914e-03  -1.383338e-02  0 
 -3.912409e-03  -1.114682e-02  0 
 -3.152555e-03  -1.399914e-02  0 
 -6.915333e-03  -1.373391e-02  0 
 -6.344782e-03  -1.514032e-02  0 
 -3.934954e-03  -1.527953e-02  0 
 -3.031241e-03  -1.503220e-02  0 
 -5.346751e-03  -1.108788e-02  0 
 -4.696445e-03  -1.102506e-02  0 
 -4.422136e-03  -1.211473e-02  0 
 -3.885777e-03  -1.463149e-02  0 
 -4.934465e-03  -1.253635e-02  0 
 -2.925418e-03  -1.114418e-02  0 
 -7.024526e-03  -1.549882e-02  0 
 -5.411103e-03  -1.505849e-02  0 
 -4.586602e-03  -1.538871e-02  0 
 -5.331953e-03  -1.431122e-02  0 
 -6.651247e-03  -1.111602e-02  0 
 -5.913349e-03  -1.150285e-02  0 
 -2.686279e-03  -1.214411e-02  0 
 -2.661190e-03  -1.564624e-02  0 
VECTORS displacement_ITER2 FLOAT
 -4.903778e-03  -8.438527e-03  0 
 -1.410009e-03  -7.402980e-03  0 
 -5.562696e-03  -1.233646e-02  0 
 -1.644822e-03  -1.235830e-02  0 
 -4.576488e-03  -8.354782e-03  0 
 -4.084615e-03  -8.246835e-03  0 
 -3.497935e-03  -8.102742e-03  0 
 -2.841798e-03  -7.939040e-03  0 
 -2.135140e-03  -7.731448e-03  0 
 -5.103581e-03  -8.939568e-03  0 
 -5.247338e-03  -9.517469e-03  0 
 -5.363468e-03  -1.013041e-02  0 
 -5.449752e-03  -1.078409e-02  0 
 -5.510977e-03  -1.150112e-02  0 
 -1.403488e-03  -8.439080e-03  0 
 -1.453007e-03  -9.282026e-03  0 
 -1.504390e-03  -1.006344e-02  0 
 -1.532148e-03  -1.078076e-02  0 
 -1.575811e-03  -1.149513e-02  0 
 -4.829857e-03  -1.216870e-02  0 
 -4.154571e-03  -1.209672e-02  0 
 -3.504039e-03  -1.208147e-02  0 
 -2.866569e-03  -1.211162e-02  0 
 -2.237577e-03  -1.218084e-02  0 
 -3.124913e-03  -9.832951e-03  0 
 -4.306284e-03  -1.075269e-02  0 
 -4.731997e-03  -9.312148e-03  0 
 -4.902972e-03  -1.113266e-02  0 
 -3.776076e-03  -9.108435e-03  0 
 -2.414300e-03  -1.001333e-02  0 
 -3.353853e-03  -1.103446e-02  0 
 -4.437615e-03  -1.002538e-02  0 
 -4.101243e-03  -9.527462e-03  0 
 -2.621246e-03  -9.306764e-03  0 
 -4.937280e-03  -9.920881e-03  0 
 -3.713697e-03  -1.025233e-02  0 
 -2.972019e-03  -1.054015e-02  0 
 -2.835336e-03  -8.585477e-03  0 
 -2.285344e-03  -1.067195e-02  0 
 -4.905534e-03  -1.043572e-02  0 
 -4.510586e-03  -1.144775e-02  0 
 -2.831842e-03  -1.157622e-02  0 
 -2.204069e-03  -1.142790e-02  0 
 -3.834851e-03  -8.595100e-03  0 
 -3.389569e-03  -8.526710e-03  0 
 -3.200708e-03  -9.295629e-03  0 
 -2.804772e-03  -1.111996e-02  0 
 -3.552971e-03  -9.596957e-03  0 
 -2.114732e-03  -8.536834e-03  0 
 -4.996997e-03  -1.171728e-02  0 
 -3.858149e-03  -1.138976e-02  0 
 -3.283498e-03  -1.163697e-02  0 
 -3.810372e-03  -1.085791e-02  0 
 -4.649717e-03  -8.666095e-03  0 
 -4.205549e-03  -8.884726e-03  0 
 -1.934897e-03  -9.309232e-03  0 
 -1.948304e-03  -1.188736e-02  0 
VECTORS displacement_ITER3 FLOAT
 -4.411014e-03  -8.073510e-03  0 
 -1.638378e-03  -6.953718e-03  0 
 -5.189801e-03  -1.129386e-02  0 
 -1.861810e-03  -1.127738e-02  0 
 -4.234543e-03  -7.959807e-03  0 
 -3.875138e-03  -7.824233e-03  0 
 -3.391977e-03  -7.675231e-03  0 
 -2.843964e-03  -7.509287e-03  0 
 -2.254352e-03  -7.298334e-03  0 
 -4.636787e-03  -8.424583e-03  0 
 -4.798893e-03  -8.877668e-03  0 
 -4.930337e-03  -9.375985e-03  0 
 -5.030261e-03  -9.917645e-03  0 
 -5.110478e-03  -1.053356e-02  0 
 -1.620469e-03  -7.902745e-03  0 
 -1.670605e-03  -8.639094e-03  0 
 -1.721662e-03  -9.316065e-03  0 
 -1.750517e-03  -9.927912e-03  0 
 -1.791252e-03  -1.053349e-02  0 
 -4.519064e-03  -1.110595e-02  0 
 -3.942750e-03  -1.102317e-02  0 
 -3.396263e-03  -1.100847e-02  0 
 -2.865309e-03  -1.103908e-02  0 
 -2.340972e-03  -1.110787e-02  0 
 -3.098562e-03  -9.111333e-03  0 
 -4.066500e-03  -9.876578e-03  0 
 -4.395372e-03  -8.681362e-03  0 
 -4.571989e-03  -1.020101e-02  0 
 -3.633761e-03  -8.509179e-03  0 
 -2.499640e-03  -9.270793e-03  0 
 -3.276926e-03  -1.012645e-02  0 
 -4.172107e-03  -9.264064e-03  0 
 -3.897873e-03  -8.852901e-03  0 
 -2.679509e-03  -8.661098e-03  0 
 -4.576985e-03  -9.186067e-03  0 
 -3.580727e-03  -9.459421e-03  0 
 -2.965474e-03  -9.714445e-03  0 
 -2.852431e-03  -8.052443e-03  0 
 -2.388815e-03  -9.834805e-03  0 
 -4.564339e-03  -9.611446e-03  0 
 -4.238943e-03  -1.047167e-02  0 
 -2.839989e-03  -1.059061e-02  0 
 -2.320838e-03  -1.047862e-02  0 
 -3.678068e-03  -8.091746e-03  0 
 -3.310950e-03  -8.021311e-03  0 
 -3.161155e-03  -8.658195e-03  0 
 -2.821697e-03  -1.020855e-02  0 
 -3.451220e-03  -8.912694e-03  0 
 -2.252261e-03  -7.988712e-03  0 
 -4.660367e-03  -1.071062e-02  0 
 -3.693124e-03  -1.042119e-02  0 
 -3.214678e-03  -1.063562e-02  0 
 -3.656660e-03  -9.971259e-03  0 
 -4.307023e-03  -8.176280e-03  0 
 -3.976782e-03  -8.330321e-03  0 
 -2.090638e-03  -8.667329e-03  0 
 -2.109701e-03  -1.087222e-02  0 
VECTORS displacement_ITER4 FLOAT
 -3.873481e-03  -8.323757e-03  0 
 -1.735531e-03  -7.141663e-03  0 
 -4.698613e-03  -1.089967e-02  0 
 -1.960749e-03  -1.087610e-02  0 
 -3.820340e-03  -8.190957e-03  0 
 -3.575124e-03  -8.038588e-03  0 
 -3.191479e-03  -7.880586e-03  0 
 -2.744493e-03  -7.705507e-03  0 
 -2.252096e-03  -7.489087e-03  0 
 -4.111292e-03  -8.543669e-03  0 
 -4.281239e-03  -8.883951e-03  0 
 -4.420568e-03  -9.279356e-03  0 
 -4.525714e-03  -9.719283e-03  0 
 -4.613368e-03  -1.023755e-02  0 
 -1.711098e-03  -8.003835e-03  0 
 -1.762021e-03  -8.640981e-03  0 
 -1.814316e-03  -9.221563e-03  0 
 -1.843545e-03  -9.736265e-03  0 
 -1.884335e-03  -1.024337e-02  0 
 -4.120018e-03  -1.070954e-02  0 
 -3.640585e-03  -1.062294e-02  0 
 -3.192548e-03  -1.061028e-02  0 
 -2.760472e-03  -1.064531e-02  0 
 -2.334523e-03  -1.071578e-02  0 
 -2.969752e-03  -9.047015e-03  0 
 -3.737618e-03  -9.670373e-03  0 
 -3.979546e-03  -8.702524e-03  0 
 -4.152432e-03  -9.943815e-03  0 
 -3.398504e-03  -8.557439e-03  0 
 -2.472924e-03  -9.184518e-03  0 
 -3.102754e-03  -9.887719e-03  0 
 -3.819727e-03  -9.165579e-03  0 
 -3.604637e-03  -8.833466e-03  0 
 -2.626695e-03  -8.666184e-03  0 
 -4.135521e-03  -9.110323e-03  0 
 -3.353391e-03  -9.330022e-03  0 
 -2.855905e-03  -9.552351e-03  0 
 -2.764294e-03  -8.159347e-03  0 
 -2.379903e-03  -9.659787e-03  0 
 -4.137709e-03  -9.454536e-03  0 
 -3.879676e-03  -1.016831e-02  0 
 -2.744875e-03  -1.027911e-02  0 
 -2.325489e-03  -1.020125e-02  0 
 -3.429365e-03  -8.228174e-03  0 
 -3.136435e-03  -8.153701e-03  0 
 -3.020791e-03  -8.670925e-03  0 
 -2.734482e-03  -9.966375e-03  0 
 -3.253143e-03  -8.883025e-03  0 
 -2.266523e-03  -8.080596e-03  0 
 -4.232827e-03  -1.037806e-02  0 
 -3.435962e-03  -1.012431e-02  0 
 -3.048006e-03  -1.030773e-02  0 
 -3.409993e-03  -9.753315e-03  0 
 -3.889657e-03  -8.325250e-03  0 
 -3.660366e-03  -8.421496e-03  0 
 -2.125100e-03  -8.671203e-03  0 
 -2.155611e-03  -1.053389e-02  0 
VECTORS displacement_ITER5 FLOAT
 -3.793554e-03  -8.415377e-03  0 
 -1.768206e-03  -7.225950e-03  0 
 -4.623886e-03  -1.087497e-02  0 
 -1.995819e-03  -1.083673e-02  0 
 -3.757595e-03  -8.276864e-03  0 
 -3.529004e-03  -8.120079e-03  0 
 -3.163619e-03  -7.963391e-03  0 
 -2.737689e-03  -7.788299e-03  0 
 -2.263843e-03  -7.571567e-03  0 
 -4.030840e-03  -8.609983e-03  0 
 -4.201629e-03  -8.930937e-03  0 
 -4.341700e-03  -9.308391e-03  0 
 -4.446513e-03  -9.729712e-03  0 
 -4.535472e-03  -1.023084e-02  0 
 -1.741033e-03  -8.068764e-03  0 
 -1.793148e-03  -8.686942e-03  0 
 -1.845978e-03  -9.249972e-03  0 
 -1.873871e-03  -9.746045e-03  0 
 -1.914883e-03  -1.023497e-02  0 
 -4.057993e-03  -1.068397e-02  0 
 -3.596742e-03  -1.059620e-02  0 
 -3.167811e-03  -1.058199e-02  0 
 -2.753363e-03  -1.061720e-02  0 
 -2.344049e-03  -1.068688e-02  0 
 -2.956638e-03  -9.080380e-03  0 
 -3.689137e-03  -9.679435e-03  0 
 -3.916517e-03  -8.752788e-03  0 
 -4.087930e-03  -9.943513e-03  0 
 -3.365141e-03  -8.611761e-03  0 
 -2.479745e-03  -9.213761e-03  0 
 -3.082149e-03  -9.889109e-03  0 
 -3.767041e-03  -9.194463e-03  0 
 -3.561822e-03  -8.876281e-03  0 
 -2.628356e-03  -8.712704e-03  0 
 -4.067922e-03  -9.143241e-03  0 
 -3.322525e-03  -9.352311e-03  0 
 -2.846802e-03  -9.567351e-03  0 
 -2.759124e-03  -8.224705e-03  0 
 -2.390163e-03  -9.671812e-03  0 
 -4.072314e-03  -9.473022e-03  0 
 -3.825569e-03  -1.015950e-02  0 
 -2.739006e-03  -1.026564e-02  0 
 -2.337817e-03  -1.019417e-02  0 
 -3.392610e-03  -8.297624e-03  0 
 -3.113864e-03  -8.222784e-03  0 
 -3.005249e-03  -8.718505e-03  0 
 -2.729931e-03  -9.966022e-03  0 
 -3.227060e-03  -8.923154e-03  0 
 -2.281277e-03  -8.143524e-03  0 
 -4.166942e-03  -1.036336e-02  0 
 -3.400352e-03  -1.011623e-02  0 
 -3.029526e-03  -1.029228e-02  0 
 -3.376037e-03  -9.759479e-03  0 
 -3.827240e-03  -8.398365e-03  0 
 -3.613308e-03  -8.484260e-03  0 
 -2.144408e-03  -8.717781e-03  0 
 -2.175720e-03  -1.051439e-02  0 
VECTORS displacement_ITER6 FLOAT
 -3.750190e-03  -8.451365e-03  0 
 -1.772242e-03  -7.243859e-03  0 
 -4.577122e-03  -1.083978e-02  0 
 -2.010112e-03  -1.079800e-02  0 
 -3.722235e-03  -8.307744e-03  0 
 -3.502709e-03  -8.150627e-03  0 
 -3.146072e-03  -7.991182e-03  0 
 -2.728261e-03  -7.812574e-03  0 
 -2.263035e-03  -7.592188e-03  0 
 -3.985239e-03  -8.630509e-03  0 
 -4.155631e-03  -8.940571e-03  0 
 -4.295768e-03  -9.307669e-03  0 
 -4.399673e-03  -9.718190e-03  0 
 -4.488097e-03  -1.020905e-02  0 
 -1.745869e-03  -8.082977e-03  0 
 -1.800608e-03  -8.693200e-03  0 
 -1.855532e-03  -9.248662e-03  0 
 -1.883890e-03  -9.734936e-03  0 
 -1.926344e-03  -1.021361e-02  0 
 -4.021439e-03  -1.065237e-02  0 
 -3.570252e-03  -1.056642e-02  0 
 -3.150721e-03  -1.055323e-02  0 
 -2.745763e-03  -1.058865e-02  0 
 -2.344436e-03  -1.065630e-02  0 
 -2.946358e-03  -9.082601e-03  0 
 -3.660921e-03  -9.668269e-03  0 
 -3.880419e-03  -8.764600e-03  0 
 -4.050266e-03  -9.926730e-03  0 
 -3.345486e-03  -8.625392e-03  0 
 -2.477969e-03  -9.213795e-03  0 
 -3.067776e-03  -9.874874e-03  0 
 -3.736635e-03  -9.194153e-03  0 
 -3.536959e-03  -8.883623e-03  0 
 -2.624378e-03  -8.720949e-03  0 
 -4.028856e-03  -9.145030e-03  0 
 -3.303693e-03  -9.348552e-03  0 
 -2.837982e-03  -9.560269e-03  0 
 -2.751998e-03  -8.241490e-03  0 
 -2.390174e-03  -9.662984e-03  0 
 -4.034367e-03  -9.466760e-03  0 
 -3.794077e-03  -1.013821e-02  0 
 -2.731541e-03  -1.024403e-02  0 
 -2.339136e-03  -1.017499e-02  0 
 -3.371371e-03  -8.319785e-03  0 
 -3.099162e-03  -8.243467e-03  0 
 -2.994046e-03  -8.727812e-03  0 
 -2.723074e-03  -9.951010e-03  0 
 -3.210834e-03  -8.928897e-03  0 
 -2.282291e-03  -8.158184e-03  0 
 -4.128181e-03  -1.033767e-02  0 
 -3.378594e-03  -1.009651e-02  0 
 -3.015924e-03  -1.026988e-02  0 
 -3.355289e-03  -9.747211e-03  0 
 -3.791903e-03  -8.423196e-03  0 
 -3.586288e-03  -8.502955e-03  0 
 -2.147537e-03  -8.725760e-03  0 
 -2.181509e-03  -1.048767e-02  0 
VECTORS displacement_ITER7 FLOAT
 -3.759021e-03  -8.445272e-03  0 
 -1.741976e-03  -7.229348e-03  0 
 -4.578342e-03  -1.085018e-02  0 
 -1.993257e-03  -1.080779e-02  0 
 -3.723679e-03  -8.299690e-03  0 
 -3.498830e-03  -8.143608e-03  0 
 -3.138367e-03  -7.982846e-03  0 
 -2.714385e-03  -7.803085e-03  0 
 -2.243581e-03  -7.580466e-03  0 
 -3.990879e-03  -8.626403e-03  0 
 -4.159710e-03  -8.940542e-03  0 
 -4.299019e-03  -9.311364e-03  0 
 -4.401669e-03  -9.725212e-03  0 
 -4.489048e-03  -1.021885e-02  0 
 -1.718938e-03  -8.076836e-03  0 
 -1.776642e-03  -8.692074e-03  0 
 -1.833920e-03  -9.252262e-03  0 
 -1.863527e-03  -9.742030e-03  0 
 -1.907163e-03  -1.022360e-02  0 
 -4.019480e-03  -1.066556e-02  0 
 -3.565376e-03  -1.058144e-02  0 
 -3.142246e-03  -1.056883e-02  0 
 -2.733438e-03  -1.060371e-02  0 
 -2.328226e-03  -1.066976e-02  0 
 -2.934859e-03  -9.086299e-03  0 
 -3.657771e-03  -9.676409e-03  0 
 -3.881299e-03  -8.764876e-03  0 
 -4.049928e-03  -9.936003e-03  0 
 -3.339243e-03  -8.624524e-03  0 
 -2.461353e-03  -9.218364e-03  0 
 -3.058014e-03  -9.884724e-03  0 
 -3.734648e-03  -9.198627e-03  0 
 -3.532958e-03  -8.885376e-03  0 
 -2.608864e-03  -8.721760e-03  0 
 -4.029962e-03  -9.148317e-03  0 
 -3.296632e-03  -9.354384e-03  0 
 -2.825416e-03  -9.567634e-03  0 
 -2.738435e-03  -8.237018e-03  0 
 -2.373366e-03  -9.670472e-03  0 
 -4.034601e-03  -9.473004e-03  0 
 -3.791703e-03  -1.014918e-02  0 
 -2.718412e-03  -1.025609e-02  0 
 -2.322311e-03  -1.018550e-02  0 
 -3.365775e-03  -8.315166e-03  0 
 -3.090129e-03  -8.238650e-03  0 
 -2.983317e-03  -8.728195e-03  0 
 -2.709602e-03  -9.960914e-03  0 
 -3.202740e-03  -8.931041e-03  0 
 -2.262323e-03  -8.154221e-03  0 
 -4.127891e-03  -1.034829e-02  0 
 -3.372349e-03  -1.010815e-02  0 
 -3.005877e-03  -1.028281e-02  0 
 -3.348760e-03  -9.756049e-03  0 
 -3.793787e-03  -8.419392e-03  0 
 -3.583528e-03  -8.500832e-03  0 
 -2.127114e-03  -8.726346e-03  0 
 -2.163865e-03  -1.049914e-02  0 
VECTORS displacement_ITER8 FLOAT
 -3.820110e-03  -8.361749e-03  0 
 -1.710492e-03  -7.157513e-03  0 
 -4.629463e-03  -1.085464e-02  0 
 -1.968008e-03  -1.080405e-02  0 
 -3.765188e-03  -8.218909e-03  0 
 -3.523484e-03  -8.064699e-03  0 
 -3.149377e-03  -7.906780e-03  0 
 -2.711947e-03  -7.729933e-03  0 
 -2.227619e-03  -7.508057e-03  0 
 -4.048510e-03  -8.560728e-03  0 
 -4.214851e-03  -8.890347e-03  0 
 -4.352364e-03  -9.275394e-03  0 
 -4.453716e-03  -9.703216e-03  0 
 -4.540198e-03  -1.021016e-02  0 
 -1.689353e-03  -8.016701e-03  0 
 -1.748733e-03  -8.645093e-03  0 
 -1.807022e-03  -9.217726e-03  0 
 -1.837185e-03  -9.719406e-03  0 
 -1.880854e-03  -1.021253e-02  0 
 -4.056728e-03  -1.067032e-02  0 
 -3.589443e-03  -1.058610e-02  0 
 -3.153266e-03  -1.057251e-02  0 
 -2.731302e-03  -1.060579e-02  0 
 -2.313655e-03  -1.067023e-02  0 
 -2.935465e-03  -9.047462e-03  0 
 -3.685625e-03  -9.655702e-03  0 
 -3.922306e-03  -8.713680e-03  0 
 -4.090265e-03  -9.921860e-03  0 
 -3.354551e-03  -8.570153e-03  0 
 -2.448691e-03  -9.182847e-03  0 
 -3.064615e-03  -9.868052e-03  0 
 -3.766077e-03  -9.163729e-03  0 
 -3.556339e-03  -8.840101e-03  0 
 -2.599607e-03  -8.674527e-03  0 
 -4.073903e-03  -9.109898e-03  0 
 -3.310564e-03  -9.323780e-03  0 
 -2.823379e-03  -9.541308e-03  0 
 -2.734239e-03  -8.175768e-03  0 
 -2.358693e-03  -9.645759e-03  0 
 -4.076100e-03  -9.445621e-03  0 
 -3.823556e-03  -1.014121e-02  0 
 -2.714682e-03  -1.024795e-02  0 
 -2.305997e-03  -1.017255e-02  0 
 -3.383021e-03  -8.248236e-03  0 
 -3.097272e-03  -8.173036e-03  0 
 -2.985665e-03  -8.679112e-03  0 
 -2.704742e-03  -9.944276e-03  0 
 -3.212841e-03  -8.887336e-03  0 
 -2.243970e-03  -8.095826e-03  0 
 -4.169421e-03  -1.034411e-02  0 
 -3.390252e-03  -1.009923e-02  0 
 -3.011690e-03  -1.027725e-02  0 
 -3.365277e-03  -9.736832e-03  0 
 -3.835838e-03  -8.350606e-03  0 
 -3.610572e-03  -8.440370e-03  0 
 -2.106553e-03  -8.679750e-03  0 
 -2.142603e-03  -1.049250e-02  0 
VECTORS displacement_ITER9 FLOAT
 -3.864477e-03  -8.328215e-03  0 
 -1.725106e-03  -7.133452e-03  0 
 -4.666847e-03  -1.084461e-02  0 
 -1.989873e-03  -1.078761e-02  0 
 -3.802598e-03  -8.188138e-03  0 
 -3.556383e-03  -8.035027e-03  0 
 -3.177969e-03  -7.877399e-03  0 
 -2.736580e-03  -7.701323e-03  0 
 -2.247348e-03  -7.480946e-03  0 
 -4.091004e-03  -8.534269e-03  0 
 -4.255584e-03  -8.868003e-03  0 
 -4.391896e-03  -9.256746e-03  0 
 -4.492745e-03  -9.687843e-03  0 
 -4.578513e-03  -1.019769e-02  0 
 -1.705740e-03  -7.992537e-03  0 
 -1.765813e-03  -8.623421e-03  0 
 -1.825069e-03  -9.198489e-03  0 
 -1.856716e-03  -9.702586e-03  0 
 -1.901525e-03  -1.019711e-02  0 
 -4.091853e-03  -1.066179e-02  0 
 -3.621153e-03  -1.057788e-02  0 
 -3.181610e-03  -1.056420e-02  0 
 -2.756782e-03  -1.059601e-02  0 
 -2.336652e-03  -1.065823e-02  0 
 -2.960477e-03  -9.028775e-03  0 
 -3.718507e-03  -9.641243e-03  0 
 -3.959150e-03  -8.691545e-03  0 
 -4.126349e-03  -9.908736e-03  0 
 -3.384305e-03  -8.547063e-03  0 
 -2.470087e-03  -9.164558e-03  0 
 -3.091540e-03  -9.854545e-03  0 
 -3.800146e-03  -9.145689e-03  0 
 -3.588260e-03  -8.819414e-03  0 
 -2.621467e-03  -8.653846e-03  0 
 -4.111254e-03  -9.090916e-03  0 
 -3.339539e-03  -9.307034e-03  0 
 -2.847806e-03  -9.525415e-03  0 
 -2.757827e-03  -8.151173e-03  0 
 -2.380114e-03  -9.629643e-03  0 
 -4.112676e-03  -9.429233e-03  0 
 -3.857393e-03  -1.012974e-02  0 
 -2.739209e-03  -1.023584e-02  0 
 -2.327660e-03  -1.015808e-02  0 
 -3.413549e-03  -8.221753e-03  0 
 -3.124681e-03  -8.146796e-03  0 
 -3.011267e-03  -8.657739e-03  0 
 -2.728687e-03  -9.930236e-03  0 
 -3.240807e-03  -8.867261e-03  0 
 -2.262546e-03  -8.072613e-03  0 
 -4.205608e-03  -1.033333e-02  0 
 -3.420378e-03  -1.008773e-02  0 
 -3.038592e-03  -1.026637e-02  0 
 -3.394979e-03  -9.722763e-03  0 
 -3.873044e-03  -8.323326e-03  0 
 -3.643659e-03  -8.415514e-03  0 
 -2.125339e-03  -8.658542e-03  0 
 -2.163948e-03  -1.047799e-02  0 
VECTORS displacement_ITER10 FLOAT
 -3.876415e-03  -8.307271e-03  0 
 -1.718930e-03  -7.121919e-03  0 
 -4.670635e-03  -1.083688e-02  0 
 -1.990939e-03  -1.077529e-02  0 
 -3.809217e-03  -8.169489e-03  0 
 -3.559493e-03  -8.018373e-03  0 
 -3.178375e-03  -7.862406e-03  0 
 -2.735799e-03  -7.686753e-03  0 
 -2.244960e-03  -7.467682e-03  0 
 -4.100815e-03  -8.518294e-03  0 
 -4.263673e-03  -8.854809e-03  0 
 -4.398436e-03  -9.246045e-03  0 
 -4.498435e-03  -9.679385e-03  0 
 -4.583608e-03  -1.019022e-02  0 
 -1.701896e-03  -7.980105e-03  0 
 -1.762644e-03  -8.611653e-03  0 
 -1.822500e-03  -9.187777e-03  0 
 -1.854718e-03  -9.692331e-03  0 
 -1.900604e-03  -1.018709e-02  0 
 -4.095898e-03  -1.065517e-02  0 
 -3.623839e-03  -1.057127e-02  0 
 -3.182883e-03  -1.055684e-02  0 
 -2.756599e-03  -1.058758e-02  0 
 -2.335863e-03  -1.064859e-02  0 
 -2.959731e-03  -9.018356e-03  0 
 -3.721341e-03  -9.632749e-03  0 
 -3.964487e-03  -8.679217e-03  0 
 -4.130683e-03  -9.901044e-03  0 
 -3.385406e-03  -8.534676e-03  0 
 -2.468284e-03  -9.154147e-03  0 
 -3.091816e-03  -9.845756e-03  0 
 -3.803508e-03  -9.135847e-03  0 
 -3.590481e-03  -8.808223e-03  0 
 -2.619476e-03  -8.642816e-03  0 
 -4.116566e-03  -9.080367e-03  0 
 -3.340477e-03  -9.297441e-03  0 
 -2.847069e-03  -9.515845e-03  0 
 -2.756543e-03  -8.138409e-03  0 
 -2.378545e-03  -9.619825e-03  0 
 -4.117246e-03  -9.420190e-03  0 
 -3.860836e-03  -1.012236e-02  0 
 -2.738625e-03  -1.022701e-02  0 
 -2.326497e-03  -1.014872e-02  0 
 -3.414941e-03  -8.207645e-03  0 
 -3.124775e-03  -8.133010e-03  0 
 -3.010701e-03  -8.646207e-03  0 
 -2.727928e-03  -9.921125e-03  0 
 -3.241230e-03  -8.856261e-03  0 
 -2.259352e-03  -8.061193e-03  0 
 -4.209957e-03  -1.032640e-02  0 
 -3.422105e-03  -1.007987e-02  0 
 -3.039015e-03  -1.025813e-02  0 
 -3.396403e-03  -9.714087e-03  0 
 -3.879205e-03  -8.307501e-03  0 
 -3.646652e-03  -8.402021e-03  0 
 -2.122685e-03  -8.647198e-03  0 
 -2.163216e-03  -1.046808e-02  0 
VECTORS displacement_ITER11 FLOAT
 -3.867301e-03  -8.296749e-03  0 
 -1.711808e-03  -7.117469e-03  0 
 -4.657170e-03  -1.082240e-02  0 
 -1.988486e-03  -1.075807e-02  0 
 -3.799311e-03  -8.160695e-03  0 
 -3.549603e-03  -8.011178e-03  0 
 -3.169573e-03  -7.856513e-03  0 
 -2.727955e-03  -7.681028e-03  0 
 -2.237909e-03  -7.462123e-03  0 
 -4.090801e-03  -8.509564e-03  0 
 -4.252986e-03  -8.845852e-03  0 
 -4.386900e-03  -9.236204e-03  0 
 -4.486515e-03  -9.668514e-03  0 
 -4.571155e-03  -1.017790e-02  0 
 -1.696011e-03  -7.972992e-03  0 
 -1.757285e-03  -8.602999e-03  0 
 -1.817595e-03  -9.177909e-03  0 
 -1.850181e-03  -9.680797e-03  0 
 -1.896936e-03  -1.017345e-02  0 
 -4.085113e-03  -1.064160e-02  0 
 -3.614123e-03  -1.055834e-02  0 
 -3.174042e-03  -1.054383e-02  0 
 -2.749180e-03  -1.057378e-02  0 
 -2.330108e-03  -1.063356e-02  0 
 -2.951295e-03  -9.009282e-03  0 
 -3.711249e-03  -9.622104e-03  0 
 -3.953874e-03  -8.670756e-03  0 
 -4.119648e-03  -9.889801e-03  0 
 -3.375831e-03  -8.526552e-03  0 
 -2.461320e-03  -9.144713e-03  0 
 -3.083075e-03  -9.834392e-03  0 
 -3.793173e-03  -9.126462e-03  0 
 -3.580454e-03  -8.799478e-03  0 
 -2.611907e-03  -8.634884e-03  0 
 -4.105690e-03  -9.071151e-03  0 
 -3.331077e-03  -9.287543e-03  0 
 -2.838995e-03  -9.505409e-03  0 
 -2.748707e-03  -8.131649e-03  0 
 -2.372072e-03  -9.608974e-03  0 
 -4.106273e-03  -9.410106e-03  0 
 -3.850570e-03  -1.011048e-02  0 
 -2.730970e-03  -1.021435e-02  0 
 -2.320562e-03  -1.013607e-02  0 
 -3.405296e-03  -8.200351e-03  0 
 -3.116086e-03  -8.126187e-03  0 
 -3.002187e-03  -8.638066e-03  0 
 -2.720293e-03  -9.909466e-03  0 
 -3.232057e-03  -8.847466e-03  0 
 -2.252258e-03  -8.054673e-03  0 
 -4.198633e-03  -1.031403e-02  0 
 -3.412704e-03  -1.006800e-02  0 
 -3.030488e-03  -1.024569e-02  0 
 -3.386982e-03  -9.703147e-03  0 
 -3.868779e-03  -8.299080e-03  0 
 -3.636420e-03  -8.394019e-03  0 
 -2.116450e-03  -8.638939e-03  0 
 -2.158556e-03  -1.045367e-02  0 
VECTORS displacement_ITER12 FLOAT
 -3.864466e-03  -8.302038e-03  0 
 -1.719535e-03  -7.124327e-03  0 
 -4.651794e-03  -1.081411e-02  0 
 -2.000442e-03  -1.074755e-02  0 
 -3.797580e-03  -8.166319e-03  0 
 -3.549322e-03  -8.017005e-03  0 
 -3.171827e-03  -7.862424e-03  0 
 -2.732370e-03  -7.687378e-03  0 
 -2.244236e-03  -7.468626e-03  0 
 -4.087307e-03  -8.513177e-03  0 
 -4.249055e-03  -8.847597e-03  0 
 -4.382494e-03  -9.235716e-03  0 
 -4.481807e-03  -9.665711e-03  0 
 -4.566096e-03  -1.017255e-02  0 
 -1.704554e-03  -7.976945e-03  0 
 -1.766263e-03  -8.604563e-03  0 
 -1.827039e-03  -9.176965e-03  0 
 -1.860080e-03  -9.677266e-03  0 
 -1.907550e-03  -1.016690e-02  0 
 -4.082633e-03  -1.063360e-02  0 
 -3.614160e-03  -1.055059e-02  0 
 -3.176504e-03  -1.053591e-02  0 
 -2.754046e-03  -1.056532e-02  0 
 -2.337656e-03  -1.062440e-02  0 
 -2.954942e-03  -9.009672e-03  0 
 -3.710610e-03  -9.619328e-03  0 
 -3.951667e-03  -8.673084e-03  0 
 -4.116841e-03  -9.885771e-03  0 
 -3.377078e-03  -8.529341e-03  0 
 -2.467568e-03  -9.144405e-03  0 
 -3.085904e-03  -9.830442e-03  0 
 -3.792067e-03  -9.126257e-03  0 
 -3.580527e-03  -8.800922e-03  0 
 -2.617254e-03  -8.636997e-03  0 
 -4.102810e-03  -9.071403e-03  0 
 -3.332569e-03  -9.286476e-03  0 
 -2.843279e-03  -9.503327e-03  0 
 -2.753252e-03  -8.136043e-03  0 
 -2.379065e-03  -9.606306e-03  0 
 -4.103492e-03  -9.408504e-03  0 
 -3.849242e-03  -1.010523e-02  0 
 -2.735849e-03  -1.020813e-02  0 
 -2.328264e-03  -1.013056e-02  0 
 -3.406267e-03  -8.204769e-03  0 
 -3.118713e-03  -8.130814e-03  0 
 -3.005526e-03  -8.640230e-03  0 
 -2.725303e-03  -9.905202e-03  0 
 -3.234133e-03  -8.848646e-03  0 
 -2.258915e-03  -8.058963e-03  0 
 -4.195435e-03  -1.030788e-02  0 
 -3.413733e-03  -1.006281e-02  0 
 -3.033655e-03  -1.023936e-02  0 
 -3.388156e-03  -9.699900e-03  0 
 -3.866820e-03  -8.303653e-03  0 
 -3.636023e-03  -8.397672e-03  0 
 -2.124010e-03  -8.640796e-03  0 
 -2.167916e-03  -1.044604e-02  0 
VECTORS displacement_ITER13 FLOAT
 -3.860621e-03  -8.299855e-03  0 
 -1.715575e-03  -7.121932e-03  0 
 -4.647330e-03  -1.081057e-02  0 
 -1.999069e-03  -1.074316e-02  0 
 -3.793742e-03  -8.164161e-03  0 
 -3.545880e-03  -8.015173e-03  0 
 -3.168513e-03  -7.860306e-03  0 
 -2.728957e-03  -7.685190e-03  0 
 -2.240967e-03  -7.466155e-03  0 
 -4.083270e-03  -8.510754e-03  0 
 -4.244873e-03  -8.844974e-03  0 
 -4.378287e-03  -9.232933e-03  0 
 -4.477581e-03  -9.662860e-03  0 
 -4.561810e-03  -1.016958e-02  0 
 -1.701119e-03  -7.974432e-03  0 
 -1.763191e-03  -8.602054e-03  0 
 -1.824236e-03  -9.174386e-03  0 
 -1.857503e-03  -9.674485e-03  0 
 -1.905221e-03  -1.016370e-02  0 
 -4.078694e-03  -1.063030e-02  0 
 -3.610319e-03  -1.054727e-02  0 
 -3.172917e-03  -1.053256e-02  0 
 -2.750795e-03  -1.056190e-02  0 
 -2.334790e-03  -1.062082e-02  0 
 -2.951636e-03  -9.007334e-03  0 
 -3.706756e-03  -9.616464e-03  0 
 -3.947735e-03  -8.670612e-03  0 
 -4.112780e-03  -9.882831e-03  0 
 -3.373646e-03  -8.527110e-03  0 
 -2.464472e-03  -9.142019e-03  0 
 -3.082410e-03  -9.827594e-03  0 
 -3.788216e-03  -9.123600e-03  0 
 -3.576883e-03  -8.798480e-03  0 
 -2.614026e-03  -8.634792e-03  0 
 -4.098755e-03  -9.068709e-03  0 
 -3.329003e-03  -9.283877e-03  0 
 -2.840002e-03  -9.500761e-03  0 
 -2.749993e-03  -8.133832e-03  0 
 -2.376118e-03  -9.603700e-03  0 
 -4.099426e-03  -9.405698e-03  0 
 -3.845328e-03  -1.010214e-02  0 
 -2.732593e-03  -1.020502e-02  0 
 -2.325476e-03  -1.012763e-02  0 
 -3.402907e-03  -8.202685e-03  0 
 -3.115386e-03  -8.128726e-03  0 
 -3.002234e-03  -8.637986e-03  0 
 -2.722098e-03  -9.902386e-03  0 
 -3.230717e-03  -8.846293e-03  0 
 -2.255598e-03  -8.056784e-03  0 
 -4.191393e-03  -1.030479e-02  0 
 -3.410011e-03  -1.005975e-02  0 
 -3.030176e-03  -1.023622e-02  0 
 -3.384498e-03  -9.697058e-03  0 
 -3.862939e-03  -8.301412e-03  0 
 -3.632409e-03  -8.395410e-03  0 
 -2.120901e-03  -8.638489e-03  0 
 -2.165494e-03  -1.044276e-02  0 
VECTORS displacement_ITER14 FLOAT
 -3.854504e-03  -8.305535e-03  0 
 -1.718691e-03  -7.125871e-03  0 
 -4.641844e-03  -1.080590e-02  0 
 -2.004132e-03  -1.073743e-02  0 
 -3.789469e-03  -8.169315e-03  0 
 -3.543303e-03  -8.019968e-03  0 
 -3.167478e-03  -7.864884e-03  0 
 -2.729534e-03  -7.689605e-03  0 
 -2.242989e-03  -7.470431e-03  0 
 -4.077199e-03  -8.514230e-03  0 
 -4.238929e-03  -8.846624e-03  0 
 -4.372541e-03  -9.232888e-03  0 
 -4.471933e-03  -9.661165e-03  0 
 -4.556209e-03  -1.016637e-02  0 
 -1.704414e-03  -7.977301e-03  0 
 -1.766698e-03  -8.603532e-03  0 
 -1.827942e-03  -9.174356e-03  0 
 -1.861419e-03  -9.672839e-03  0 
 -1.909362e-03  -1.016032e-02  0 
 -4.074605e-03  -1.062557e-02  0 
 -3.607759e-03  -1.054254e-02  0 
 -3.171973e-03  -1.052783e-02  0 
 -2.751443e-03  -1.055709e-02  0 
 -2.337020e-03  -1.061581e-02  0 
 -2.951807e-03  -9.007880e-03  0 
 -3.703808e-03  -9.614744e-03  0 
 -3.943466e-03  -8.672485e-03  0 
 -4.108409e-03  -9.880286e-03  0 
 -3.372164e-03  -8.529375e-03  0 
 -2.466261e-03  -9.142230e-03  0 
 -3.081859e-03  -9.825373e-03  0 
 -3.784930e-03  -9.123552e-03  0 
 -3.574520e-03  -8.799698e-03  0 
 -2.615366e-03  -8.636412e-03  0 
 -4.094074e-03  -9.068996e-03  0 
 -3.327635e-03  -9.283389e-03  0 
 -2.840487e-03  -9.499786e-03  0 
 -2.750770e-03  -8.136949e-03  0 
 -2.378273e-03  -9.602493e-03  0 
 -4.094977e-03  -9.404698e-03  0 
 -3.841894e-03  -1.009889e-02  0 
 -2.733324e-03  -1.020153e-02  0 
 -2.327975e-03  -1.012473e-02  0 
 -3.401171e-03  -8.206276e-03  0 