# vtk DataFile Version 3.1
this is an vtk file created by FEMAC
ASCII
DATASET UNSTRUCTURED_GRID
POINTS 57 FLOAT
2.000000 3.000000 0.000000
2.000000 4.000000 0.000000
3.000000 3.000000 0.000000
3.000000 4.000000 0.000000
2.000000 3.166667 0.000000
2.000000 3.333333 0.000000
2.000000 3.500000 0.000000
2.000000 3.666667 0.000000
2.000000 3.833333 0.000000
2.166667 3.000000 0.000000
2.333333 3.000000 0.000000
2.500000 3.000000 0.000000
2.666667 3.000000 0.000000
2.833333 3.000000 0.000000
2.166667 4.000000 0.000000
2.333333 4.000000 0.000000
2.500000 4.000000 0.000000
2.666667 4.000000 0.000000
2.833333 4.000000 0.000000
3.000000 3.166667 0.000000
3.000000 3.333333 0.000000
3.000000 3.500000 0.000000
3.000000 3.666667 0.000000
3.000000 3.833333 0.000000
2.789762 3.336667 0.000000
2.275196 3.679602 0.000000
2.124599 3.748022 0.000000
2.564391 3.279120 0.000000
2.312838 3.508454 0.000000
2.757945 3.498910 0.000000
2.726293 3.186593 0.000000
2.745046 3.866937 0.000000
2.891839 3.417222 0.000000
2.868410 3.587331 0.000000
2.606701 3.525096 0.000000
2.669119 3.384126 0.000000
2.127998 3.587883 0.000000
2.227494 3.853823 0.000000
2.862723 3.754734 0.000000
2.886625 3.255144 0.000000
2.140077 3.273880 0.000000
2.529454 3.123573 0.000000
2.588504 3.847788 0.000000
2.417909 3.817982 0.000000
2.143091 3.428532 0.000000
2.255010 3.230135 0.000000
2.469837 3.627204 0.000000
2.145715 3.131878 0.000000
2.103752 3.887036 0.000000
2.476903 3.429349 0.000000
2.290042 3.355449 0.000000
2.394524 3.219744 0.000000
2.259050 3.116351 0.000000
2.889250 3.121681 0.000000
2.888100 3.878103 0.000000
2.679867 3.680991 0.000000
2.539029 3.743491 0.000000
CELLS 88 352 
3 26  8  7
3 21 32 20
3 24 32 29
3 33 21 22
3 35 24 29
3 7 36 26
3 36 25 26
3 37 15 14
3 23 38 22
3 39 19 20
3 32 39 20
3 32 24 39
3 38 33 22
3 33 32 21
3 29 32 33
3 29 34 35
3 6 36  7
3 25 36 28
3 35 30 24
3 27 30 35
3 4 40  5
3 39 24 30
3 25 37 26
3 41 11 12
3 30 41 12
3 44 36  6
3 36 44 28
3 47  4  0
3 9 47  0
3 8 48  1
3 48 14  1
3 49 27 35
3 5 44  6
3 5 40 44
3 37 25 43
3 14 48 37
3 48 26 37
3 26 48  8
3 27 41 30
3 16 42 17
3 42 31 17
3 11 41 10
3 4 47 40
3 45 40 47
3 37 43 15
3 50 28 44
3 50 45 51
3 40 50 44
3 40 45 50
3 51 41 27
3 41 51 10
3 45 52 51
3 52 10 51
3 52  9 10
3 52 47  9
3 45 47 52
3 35 34 49
3 46 49 34
3 51 27 49
3 28 50 49
3 50 51 49
3 46 25 28
3 43 25 46
3 28 49 46
3 53 13  2
3 19 53  2
3 18 54  3
3 54 23  3
3 38 54 31
3 54 38 23
3 53 39 30
3 39 53 19
3 13 30 12
3 30 13 53
3 31 18 17
3 18 31 54
3 33 55 29
3 55 34 29
3 55 38 31
3 55 33 38
3 55 46 34
3 31 42 55
3 43 16 15
3 42 16 43
3 43 56 42
3 55 56 46
3 56 55 42
3 56 43 46
CELL_TYPES 88
5 5 5 5 5 5 5 5 5 5 5 5 5 5 5 5 5 5 5 5 5 5 5 5 5 5 5 5 5 5 5 5 5 5 5 5 5 5 5 5 5 5 5 5 5 5 5 5 5 5 5 5 5 5 5 5 5 5 5 5 5 5 5 5 5 5 5 5 5 5 5 5 5 5 5 5 5 5 5 5 5 5 5 5 5 5 5 5 
POINT_DATA 57
VECTORS displacement_ITER1 FLOAT
 1.036168e-03  -2.356453e-03  0 
 3.682914e-04  -7.062387e-03  0 
 2.743607e-03  -8.699826e-03  0 
 8.301022e-03  -1.233355e-02  0 
 7.773649e-04  -2.352029e-03  0 
 1.289438e-03  -3.430159e-03  0 
 1.630848e-03  -4.454481e-03  0 
 1.630890e-03  -4.607771e-03  0 
 1.904939e-03  -3.463146e-03  0 
 1.023671e-03  -5.626948e-03  0 
 2.007218e-03  -6.337344e-03  0 
 1.730425e-03  -6.316087e-03  0 
 1.744258e-03  -7.042433e-03  0 
 2.519947e-03  -6.684469e-03  0 
 5.115961e-03  -9.176690e-03  0 
 5.200403e-03  -1.069334e-02  0 
 4.901945e-03  -1.180755e-02  0 
 5.000421e-03  -1.203128e-02  0 
 6.011938e-03  -1.208708e-02  0 
 4.077300e-03  -1.186224e-02  0 
 4.948171e-03  -1.111017e-02  0 
 5.501613e-03  -1.081226e-02  0 
 6.153609e-03  -1.144112e-02  0 
 7.389350e-03  -1.133325e-02  0 
 4.233853e-03  -9.577235e-03  0 
 2.639292e-03  -7.360955e-03  0 
 1.900361e-03  -5.687402e-03  0 
 2.645063e-03  -7.365241e-03  0 
 2.605289e-03  -6.612755e-03  0 
 4.825814e-03  -9.959870e-03  0 
 2.654239e-03  -7.982034e-03  0 
 5.925131e-03  -1.121794e-02  0 
 5.010275e-03  -1.044977e-02  0 
 5.476786e-03  -1.062298e-02  0 
 4.243052e-03  -8.973483e-03  0 
 3.863879e-03  -8.769779e-03  0 
 1.910985e-03  -5.477289e-03  0 
 3.446621e-03  -8.339504e-03  0 
 6.392441e-03  -1.072794e-02  0 
 4.307099e-03  -1.000690e-02  0 
 1.711030e-03  -4.671970e-03  0 
 1.920243e-03  -6.508803e-03  0 
 5.175690e-03  -1.115816e-02  0 
 4.296000e-03  -1.025176e-02  0 
 1.990985e-03  -5.120469e-03  0 
 1.767334e-03  -5.658170e-03  0 
 3.868229e-03  -8.747639e-03  0 
 1.391932e-03  -4.560563e-03  0 
 2.847941e-03  -5.625791e-03  0 
 3.107787e-03  -7.496971e-03  0 
 2.208929e-03  -5.922764e-03  0 
 1.774710e-03  -6.348291e-03  0 
 1.517494e-03  -6.003498e-03  0 
 3.077682e-03  -8.746999e-03  0 
 6.811781e-03  -1.112695e-02  0 
 5.412586e-03  -1.023155e-02  0 
 4.732082e-03  -1.017577e-02  0 
VECTORS displacement_ITER2 FLOAT
 1.284820e-03  -2.655097e-03  0 
 1.389961e-03  -5.535610e-03  0 
 1.247773e-03  -6.261980e-03  0 
 6.342405e-03  -1.017107e-02  0 
 -8.919463e-05  -3.159467e-03  0 
 -2.867976e-04  -2.804919e-03  0 
 4.714833e-04  -3.008273e-03  0 
 8.939824e-04  -3.178754e-03  0 
 1.337187e-03  -3.604908e-03  0 
 1.795482e-03  -3.611390e-03  0 
 1.395369e-03  -4.001893e-03  0 
 1.334655e-03  -4.882130e-03  0 
 1.629187e-03  -6.600244e-03  0 
 1.709649e-03  -6.994081e-03  0 
 2.822752e-03  -6.447216e-03  0 
 3.125798e-03  -6.666993e-03  0 
 3.107152e-03  -7.518522e-03  0 
 3.312379e-03  -8.562056e-03  0 
 4.038251e-03  -9.448248e-03  0 
 2.125710e-03  -8.652166e-03  0 
 2.228642e-03  -8.295907e-03  0 
 3.826088e-03  -8.964085e-03  0 
 4.012119e-03  -8.706275e-03  0 
 4.794623e-03  -8.864819e-03  0 
 2.323799e-03  -7.227770e-03  0 
 1.772390e-03  -5.636787e-03  0 
 1.536425e-03  -4.542166e-03  0 
 1.698371e-03  -5.727138e-03  0 
 1.300120e-03  -5.320281e-03  0 
 2.857161e-03  -7.310423e-03  0 
 1.568175e-03  -6.582596e-03  0 
 3.668637e-03  -8.356585e-03  0 
 2.746120e-03  -7.728949e-03  0 
 3.686114e-03  -8.216626e-03  0 
 2.470103e-03  -6.769775e-03  0 
 2.257764e-03  -6.587587e-03  0 
 9.879741e-04  -4.205073e-03  0 
 2.471595e-03  -5.925007e-03  0 
 4.031649e-03  -8.212633e-03  0 
 2.142983e-03  -7.745074e-03  0 
 1.659117e-04  -3.733694e-03  0 
 1.547548e-03  -5.338298e-03  0 
 3.118277e-03  -7.849932e-03  0 
 2.745632e-03  -7.034859e-03  0 
 5.626036e-04  -4.122307e-03  0 
 7.355786e-04  -4.042409e-03  0 
 2.274249e-03  -6.600114e-03  0 
 7.548613e-04  -3.469928e-03  0 
 2.066189e-03  -5.015481e-03  0 
 1.710268e-03  -5.811424e-03  0 
 9.335627e-04  -4.748415e-03  0 
 1.237995e-03  -4.720042e-03  0 
 1.075620e-03  -3.703714e-03  0 
 1.408139e-03  -7.080198e-03  0 
 4.442153e-03  -8.517097e-03  0 
 3.319125e-03  -7.643024e-03  0 
 2.889536e-03  -7.397787e-03  0 
VECTORS displacement_ITER3 FLOAT
 4.596812e-04  -2.938977e-03  0 
 1.759117e-03  -4.736908e-03  0 
 5.895576e-04  -6.683007e-03  0 
 4.271029e-03  -7.884161e-03  0 
 7.065901e-04  -3.213286e-03  0 
 9.012091e-04  -3.139316e-03  0 
 9.485020e-04  -3.357930e-03  0 
 1.238550e-03  -3.351210e-03  0 
 1.178068e-03  -4.242031e-03  0 
 1.384730e-03  -4.179879e-03  0 
 1.739606e-03  -4.626961e-03  0 
 2.091857e-03  -4.915191e-03  0 
 2.199883e-03  -5.546622e-03  0 
 1.780638e-03  -6.050897e-03  0 
 2.105921e-03  -6.189533e-03  0 
 2.771466e-03  -6.476451e-03  0 
 3.000420e-03  -6.917682e-03  0 
 3.132998e-03  -7.853928e-03  0 
 3.191473e-03  -8.284494e-03  0 
 2.583433e-03  -7.297193e-03  0 
 2.889067e-03  -8.064265e-03  0 
 3.028529e-03  -7.827363e-03  0 
 4.037065e-03  -7.627186e-03  0 
 4.214955e-03  -8.008505e-03  0 
 2.456004e-03  -6.646235e-03  0 
 1.915849e-03  -5.406465e-03  0 
 1.688648e-03  -4.589970e-03  0 
 1.839018e-03  -5.559560e-03  0 
 1.626855e-03  -5.168911e-03  0 
 2.931467e-03  -6.839981e-03  0 
 1.923948e-03  -5.782647e-03  0 
 3.377065e-03  -7.820357e-03  0 
 2.903548e-03  -7.434892e-03  0 
 3.380040e-03  -7.213935e-03  0 
 2.515138e-03  -6.415335e-03  0 
 2.318203e-03  -6.201928e-03  0 
 1.316924e-03  -4.279873e-03  0 
 2.208976e-03  -5.618863e-03  0 
 3.732424e-03  -7.582709e-03  0 
 2.447019e-03  -6.908885e-03  0 
 1.054199e-03  -4.127440e-03  0 
 1.855058e-03  -5.246969e-03  0 
 2.922617e-03  -7.259105e-03  0 
 2.596475e-03  -6.491705e-03  0 
 1.206824e-03  -4.158611e-03  0 
 1.234005e-03  -4.627167e-03  0 
 2.319293e-03  -6.233320e-03  0 
 1.080450e-03  -4.216700e-03  0 
 1.687672e-03  -5.229857e-03  0 
 1.883321e-03  -5.651308e-03  0 
 1.384076e-03  -4.863191e-03  0 
 1.485667e-03  -5.048803e-03  0 
 1.359503e-03  -4.562304e-03  0 
 1.895476e-03  -6.095738e-03  0 
 3.908894e-03  -7.786200e-03  0 
 3.048428e-03  -7.083853e-03  0 
 2.722425e-03  -6.842630e-03  0 
VECTORS displacement_ITER4 FLOAT
 3.915870e-04  -3.205055e-03  0 
 2.051670e-03  -4.538276e-03  0 
 8.682470e-04  -6.843753e-03  0 
 3.722202e-03  -7.798903e-03  0 
 3.039021e-04  -3.187402e-03  0 
 3.590666e-04  -3.222521e-03  0 
 5.978636e-04  -3.242180e-03  0 
 9.356212e-04  -3.431498e-03  0 
 1.236426e-03  -3.904739e-03  0 
 1.159563e-03  -3.936268e-03  0 
 1.276687e-03  -4.653560e-03  0 
 1.359483e-03  -5.324180e-03  0 
 1.308804e-03  -5.657476e-03  0 
 1.130920e-03  -6.471389e-03  0 
 2.237376e-03  -5.944649e-03  0 
 2.608334e-03  -6.707807e-03  0 
 2.730384e-03  -6.932088e-03  0 
 2.809099e-03  -7.315419e-03  0 
 2.968749e-03  -7.517656e-03  0 
 1.445224e-03  -7.169255e-03  0 
 1.952981e-03  -7.922724e-03  0 
 2.364672e-03  -7.974823e-03  0 
 2.760642e-03  -8.007935e-03  0 
 3.195385e-03  -8.092168e-03  0 
 1.656528e-03  -6.752070e-03  0 
 1.591539e-03  -5.410412e-03  0 
 1.400325e-03  -4.627799e-03  0 
 1.249347e-03  -5.794849e-03  0 
 1.185102e-03  -5.215498e-03  0 
 2.085435e-03  -7.048293e-03  0 
 1.310716e-03  -6.158105e-03  0 
 2.910141e-03  -7.374207e-03  0 
 2.078243e-03  -7.453483e-03  0 
 2.465566e-03  -7.551597e-03  0 
 1.877160e-03  -6.511577e-03  0 
 1.586231e-03  -6.409659e-03  0 
 1.004151e-03  -4.274656e-03  0 
 2.012330e-03  -5.714830e-03  0 
 2.844595e-03  -7.566340e-03  0 
 1.531348e-03  -6.996964e-03  0 
 5.599612e-04  -4.070195e-03  0 
 1.171698e-03  -5.426114e-03  0 
 2.646314e-03  -7.056326e-03  0 
 2.363135e-03  -6.524367e-03  0 
 7.130446e-04  -4.177406e-03  0 
 7.327783e-04  -4.571800e-03  0 
 1.875715e-03  -6.244455e-03  0 
 6.251967e-04  -4.095534e-03  0 
 1.757713e-03  -5.072159e-03  0 
 1.333907e-03  -5.765875e-03  0 
 8.740288e-04  -4.866156e-03  0 
 9.470864e-04  -5.050316e-03  0 
 9.374831e-04  -4.430586e-03  0 
 1.230906e-03  -6.662841e-03  0 
 3.170204e-03  -7.541937e-03  0 
 2.467869e-03  -7.088570e-03  0 
 2.365078e-03  -6.770488e-03  0 
VECTORS displacement_ITER5 FLOAT
 4.135944e-04  -3.409105e-03  0 
 2.035239e-03  -4.581326e-03  0 
 8.898591e-04  -7.145986e-03  0 
 3.177984e-03  -7.810822e-03  0 
 3.433276e-04  -3.072066e-03  0 
 5.118712e-04  -3.122467e-03  0 
 7.890619e-04  -3.190889e-03  0 
 9.898521e-04  -3.506526e-03  0 
 1.286059e-03  -3.697008e-03  0 
 8.377163e-04  -4.125521e-03  0 
 1.025179e-03  -4.625910e-03  0 
 1.081462e-03  -5.134612e-03  0 
 9.743937e-04  -5.420543e-03  0 
 8.880662e-04  -6.225869e-03  0 
 2.196405e-03  -5.569733e-03  0 
 2.390895e-03  -6.339334e-03  0 
 2.485630e-03  -6.724161e-03  0 
 2.556201e-03  -7.136917e-03  0 
 2.713674e-03  -7.507719e-03  0 
 1.411775e-03  -7.476832e-03  0 
 1.877922e-03  -7.732384e-03  0 
 2.254564e-03  -7.774552e-03  0 
 2.646715e-03  -7.742360e-03  0 
 3.062900e-03  -7.858894e-03  0 
 1.664120e-03  -6.744318e-03  0 
 1.580092e-03  -5.280109e-03  0 
 1.373721e-03  -4.529541e-03  0 
 1.180680e-03  -5.731088e-03  0 
 1.233387e-03  -5.130818e-03  0 
 2.019479e-03  -6.938780e-03  0 
 1.247344e-03  -6.089247e-03  0 
 2.648222e-03  -7.271467e-03  0 
 1.996583e-03  -7.325486e-03  0 
 2.364378e-03  -7.376982e-03  0 
 1.823952e-03  -6.439211e-03  0 
 1.579123e-03  -6.375285e-03  0 
 1.108933e-03  -4.189170e-03  0 
 1.955982e-03  -5.541679e-03  0 
 2.676293e-03  -7.421967e-03  0 
 1.572701e-03  -7.033720e-03  0 
 6.096320e-04  -3.997138e-03  0 
 9.721515e-04  -5.258223e-03  0 
 2.440174e-03  -6.891677e-03  0 
 2.217403e-03  -6.328231e-03  0 
 8.285465e-04  -4.094290e-03  0 
 6.749917e-04  -4.548460e-03  0 
 1.824037e-03  -6.128298e-03  0 
 5.155099e-04  -4.067053e-03  0 
 1.817651e-03  -4.880004e-03  0 
 1.334859e-03  -5.721056e-03  0 
 8.873850e-04  -4.794189e-03  0 
 8.112840e-04  -5.005518e-03  0 
 7.328525e-04  -4.484905e-03  0 
 1.210352e-03  -6.767491e-03  0 
 2.899511e-03  -7.545302e-03  0 
 2.329060e-03  -6.966352e-03  0 
 2.225145e-03  -6.622023e-03  0 
VECTORS displacement_ITER6 FLOAT
 4.475786e-04  -3.499772e-03  0 
 1.999908e-03  -4.703209e-03  0 
 9.563355e-04  -7.331601e-03  0 
 2.858555e-03  -7.628273e-03  0 
 3.412239e-04  -3.142910e-03  0 
 5.138444e-04  -3.094279e-03  0 
 6.705781e-04  -3.172532e-03  0 
 8.800095e-04  -3.343295e-03  0 
 1.238630e-03  -3.676057e-03  0 
 6.620546e-04  -4.214064e-03  0 
 7.694629e-04  -4.634527e-03  0 
 8.500661e-04  -5.118734e-03  0 
 8.954628e-04  -5.593985e-03  0 
 9.066411e-04  -6.221893e-03  0 
 2.203545e-03  -5.633290e-03  0 
 2.357785e-03  -6.233491e-03  0 
 2.448306e-03  -6.718802e-03  0 
 2.556287e-03  -7.122335e-03  0 
 2.694148e-03  -7.455287e-03  0 
 1.273658e-03  -7.599125e-03  0 
 1.674844e-03  -7.633811e-03  0 
 2.033240e-03  -7.836694e-03  0 
 2.405167e-03  -7.909705e-03  0 
 2.826306e-03  -7.914715e-03  0 
 1.494935e-03  -6.857744e-03  0 
 1.501345e-03  -5.282305e-03  0 
 1.332739e-03  -4.488530e-03  0 
 1.048473e-03  -5.837572e-03  0 
 1.133378e-03  -5.110342e-03  0 
 1.802976e-03  -7.018459e-03  0 
 1.119045e-03  -6.241407e-03  0 
 2.565361e-03  -7.276303e-03  0 
 1.761523e-03  -7.365684e-03  0 
 2.131085e-03  -7.475011e-03  0 
 1.666298e-03  -6.495289e-03  0 
 1.416984e-03  -6.483650e-03  0 
 9.756214e-04  -4.132779e-03  0 
 1.952022e-03  -5.532054e-03  0 
 2.502921e-03  -7.513157e-03  0 
 1.447136e-03  -7.105161e-03  0 
 5.457119e-04  -3.978745e-03  0 
 8.343356e-04  -5.365929e-03  0 
 2.371785e-03  -6.864543e-03  0 
 2.148222e-03  -6.302919e-03  0 
 7.514684e-04  -4.033012e-03  0 
 5.834923e-04  -4.545994e-03  0 
 1.719176e-03  -6.132424e-03  0 
 4.395722e-04  -4.059891e-03  0 
 1.804976e-03  -4.897529e-03  0 
 1.207152e-03  -5.770715e-03  0 
 7.908844e-04  -4.789454e-03  0 
 6.994928e-04  -5.069661e-03  0 
 5.739491e-04  -4.498620e-03  0 
 1.163549e-03  -6.872023e-03  0 
 2.752247e-03  -7.602404e-03  0 
 2.172027e-03  -6.990088e-03  0 
 2.125152e-03  -6.603921e-03  0 
VECTORS displacement_ITER7 FLOAT
 4.472868e-04  -3.460057e-03  0 
 2.027678e-03  -4.605704e-03  0 
 9.417157e-04  -7.258039e-03  0 
 2.758484e-03  -7.770788e-03  0 
 3.425984e-04  -3.301275e-03  0 
 5.017514e-04  -3.246407e-03  0 
 6.448113e-04  -3.331399e-03  0 
 8.863165e-04  -3.395431e-03  0 
 1.234908e-03  -3.739523e-03  0 
 6.450385e-04  -4.126950e-03  0 
 7.107536e-04  -4.631021e-03  0 
 7.671929e-04  -5.143013e-03  0 
 8.703181e-04  -5.748283e-03  0 
 8.894075e-04  -6.192532e-03  0 
 2.211007e-03  -5.651076e-03  0 
 2.340801e-03  -6.217071e-03  0 
 2.433990e-03  -6.694190e-03  0 
 2.541054e-03  -7.078236e-03  0 
 2.664106e-03  -7.455337e-03  0 
 1.178206e-03  -7.585130e-03  0 
 1.652198e-03  -7.712339e-03  0 
 1.985586e-03  -7.817904e-03  0 
 2.401875e-03  -7.877627e-03  0 
 2.691259e-03  -7.935240e-03  0 
 1.444433e-03  -6.867576e-03  0 
 1.466075e-03  -5.327371e-03  0 
 1.326203e-03  -4.527413e-03  0 
 1.030933e-03  -5.851318e-03  0 
 1.097913e-03  -5.157153e-03  0 
 1.788967e-03  -7.024749e-03  0 
 1.045971e-03  -6.289520e-03  0 
 2.488796e-03  -7.288378e-03  0 
 1.744056e-03  -7.397944e-03  0 
 2.105546e-03  -7.466231e-03  0 
 1.635160e-03  -6.514961e-03  0 
 1.390094e-03  -6.482815e-03  0 
 9.385116e-04  -4.216980e-03  0 
 1.930348e-03  -5.547281e-03  0 
 2.421065e-03  -7.561411e-03  0 
 1.370255e-03  -7.110720e-03  0 
 5.331027e-04  -4.053638e-03  0 
 8.187887e-04  -5.430993e-03  0 
 2.323452e-03  -6.860702e-03  0 
 2.110123e-03  -6.309785e-03  0 
 7.304301e-04  -4.126518e-03  0 
 5.950149e-04  -4.564952e-03  0 
 1.674564e-03  -6.160310e-03  0 
 4.609918e-04  -4.064002e-03  0 
 1.777260e-03  -4.911788e-03  0 
 1.180724e-03  -5.786468e-03  0 
 7.832342e-04  -4.836909e-03  0 
 7.196110e-04  -5.092754e-03  0 
 5.862536e-04  -4.479251e-03  0 
 1.097911e-03  -6.862479e-03  0 
 2.630527e-03  -7.647915e-03  0 
 2.109375e-03  -7.021921e-03  0 
 2.078520e-03  -6.617559e-03  0 
VECTORS displacement_ITER8 FLOAT
 4.651393e-04  -3.381805e-03  0 
 2.022096e-03  -4.476222e-03  0 
 8.456361e-04  -7.175456e-03  0 
 2.744562e-03  -7.864546e-03  0 
 4.251844e-04  -3.360558e-03  0 
 4.900348e-04  -3.353928e-03  0 
 6.903838e-04  -3.373688e-03  0 
 9.096574e-04  -3.483678e-03  0 
 1.201737e-03  -3.821230e-03  0 
 6.513654e-04  -4.160009e-03  0 
 7.508326e-04  -4.685125e-03  0 
 7.927336e-04  -5.135963e-03  0 
 8.483109e-04  -5.703271e-03  0 
 8.660091e-04  -6.143542e-03  0 
 2.139378e-03  -5.637890e-03  0 
 2.281732e-03  -6.231129e-03  0 
 2.396632e-03  -6.690449e-03  0 
 2.510314e-03  -7.068027e-03  0 
 2.627987e-03  -7.437272e-03  0 
 1.173397e-03  -7.560731e-03  0 
 1.656401e-03  -7.740492e-03  0 
 1.998618e-03  -7.787457e-03  0 
 2.371798e-03  -7.836842e-03  0 
 2.635226e-03  -7.862172e-03  0 
 1.446822e-03  -6.834889e-03  0 
 1.456530e-03  -5.326912e-03  0 
 1.310558e-03  -4.559127e-03  0 
 1.030407e-03  -5.822547e-03  0 
 1.095942e-03  -5.177392e-03  0 
 1.792535e-03  -7.007094e-03  0 
 1.029222e-03  -6.245852e-03  0 
 2.440202e-03  -7.276501e-03  0 
 1.762651e-03  -7.380386e-03  0 
 2.098683e-03  -7.448218e-03  0 
 1.630051e-03  -6.498466e-03  0 
 1.392263e-03  -6.453979e-03  0 
 9.677664e-04  -4.257607e-03  0 
 1.870545e-03  -5.543753e-03  0 
 2.387044e-03  -7.538702e-03  0 
 1.359446e-03  -7.084102e-03  0 
 5.667657e-04  -4.087010e-03  0 
 8.171800e-04  -5.405196e-03  0 
 2.283899e-03  -6.851485e-03  0 
 2.070545e-03  -6.294805e-03  0 
 7.320233e-04  -4.188753e-03  0 
 6.301325e-04  -4.584036e-03  0 
 1.656130e-03  -6.154518e-03  0 
 5.383255e-04  -4.097869e-03  0 
 1.705433e-03  -4.925243e-03  0 
 1.183567e-03  -5.773544e-03  0 
 8.005971e-04  -4.847840e-03  0 
 7.325504e-04  -5.090171e-03  0 
 6.344255e-04  -4.528643e-03  0 
 1.064307e-03  -6.794951e-03  0 
 2.559360e-03  -7.624171e-03  0 
 2.086795e-03  -7.011023e-03  0 
 2.047118e-03  -6.607458e-03  0 
VECTORS displacement_ITER9 FLOAT
 4.579218e-04  -3.428824e-03  0 
 1.916017e-03  -4.503791e-03  0 
 7.589960e-04  -7.074128e-03  0 
 2.715168e-03  -7.814504e-03  0 
 3.515124e-04  -3.326853e-03  0 
 4.108093e-04  -3.257101e-03  0 
 6.345864e-04  -3.267727e-03  0 
 8.860710e-04  -3.437438e-03  0 
 1.229982e-03  -3.741533e-03  0 
 6.353885e-04  -4.124521e-03  0 
 7.311106e-04  -4.645499e-03  0 
 7.920258e-04  -5.139873e-03  0 
 8.314729e-04  -5.674005e-03  0 
 8.544699e-04  -6.223815e-03  0 
 2.115182e-03  -5.494872e-03  0 
 2.288806e-03  -6.169804e-03  0 
 2.419956e-03  -6.653342e-03  0 
 2.533974e-03  -7.086428e-03  0 
 2.631785e-03  -7.462536e-03  0 
 1.145288e-03  -7.521364e-03  0 
 1.565175e-03  -7.698302e-03  0 
 1.965039e-03  -7.800725e-03  0 
 2.329357e-03  -7.890090e-03  0 
 2.679700e-03  -7.877693e-03  0 
 1.388195e-03  -6.815688e-03  0 
 1.432249e-03  -5.265794e-03  0 
 1.299131e-03  -4.497011e-03  0 
 9.793029e-04  -5.810951e-03  0 
 1.053785e-03  -5.140462e-03  0 
 1.725541e-03  -6.991028e-03  0 
 9.916056e-04  -6.234342e-03  0 
 2.451472e-03  -7.292055e-03  0 
 1.691415e-03  -7.348841e-03  0 
 2.050581e-03  -7.459935e-03  0 
 1.575027e-03  -6.472149e-03  0 
 1.331767e-03  -6.439806e-03  0 
 9.443400e-04  -4.198319e-03  0 
 1.852913e-03  -5.451128e-03  0 
 2.392859e-03  -7.541141e-03  0 
 1.302103e-03  -7.067492e-03  0 
 4.851386e-04  -4.033973e-03  0 
 7.823316e-04  -5.392001e-03  0 
 2.276264e-03  -6.834878e-03  0 
 2.052428e-03  -6.237313e-03  0 
 6.728779e-04  -4.128232e-03  0 
 5.611688e-04  -4.544236e-03  0 
 1.617130e-03  -6.115065e-03  0 
 4.700086e-04  -4.058177e-03  0 
 1.714810e-03  -4.814999e-03  0 
 1.129793e-03  -5.752519e-03  0 
 7.377590e-04  -4.815739e-03  0 
 6.776148e-04  -5.063124e-03  0 
 5.839450e-04  -4.485099e-03  0 
 1.000538e-03  -6.764606e-03  0 
 2.589080e-03  -7.647277e-03  0 
 2.059600e-03  -6.986614e-03  0 
 2.020219e-03  -6.574093e-03  0 
VECTORS displacement_ITER10 FLOAT
 4.045299e-04  -3.456559e-03  0 
 1.881246e-03  -4.486063e-03  0 
 7.337597e-04  -7.009675e-03  0 
 2.742021e-03  -7.881299e-03  0 
 3.189635e-04  -3.291313e-03  0 
 4.703348e-04  -3.178379e-03  0 
 6.227368e-04  -3.270281e-03  0 
 8.471210e-04  -3.445967e-03  0 
 1.213174e-03  -3.743973e-03  0 
 5.950234e-04  -4.192104e-03  0 
 7.063699e-04  -4.690722e-03  0 
 7.718419e-04  -5.155686e-03  0 
 7.788819e-04  -5.585766e-03  0 
 7.973201e-04  -6.160711e-03  0 
 2.109758e-03  -5.494918e-03  0 
 2.275052e-03  -6.188924e-03  0 
 2.380031e-03  -6.647839e-03  0 
 2.478304e-03  -7.067356e-03  0 
 2.588242e-03  -7.448712e-03  0 
 1.195345e-03  -7.498188e-03  0 
 1.576375e-03  -7.669699e-03  0 
 1.979116e-03  -7.770760e-03  0 
 2.331422e-03  -7.834794e-03  0 
 2.659546e-03  -7.864483e-03  0 
 1.399959e-03  -6.799680e-03  0 
 1.414751e-03  -5.263517e-03  0 
 1.270831e-03  -4.502964e-03  0 
 9.574955e-04  -5.798483e-03  0 
 1.056598e-03  -5.118060e-03  0 
 1.729511e-03  -6.976512e-03  0 
 9.822730e-04  -6.187411e-03  0 
 2.416392e-03  -7.271321e-03  0 
 1.701165e-03  -7.323611e-03  0 
 2.058513e-03  -7.435645e-03  0 
 1.572052e-03  -6.467390e-03  0 
 1.330659e-03  -6.430431e-03  0 
 9.242390e-04  -4.187049e-03  0 
 1.826792e-03  -5.459063e-03  0 
 2.370669e-03  -7.515254e-03  0 
 1.322999e-03  -7.052243e-03  0 
 4.886290e-04  -4.036940e-03  0 
 7.419347e-04  -5.371062e-03  0 
 2.249846e-03  -6.830932e-03  0 
 2.033834e-03  -6.249233e-03  0 
 6.978885e-04  -4.089816e-03  0 
 5.401927e-04  -4.565360e-03  0 
 1.614065e-03  -6.107592e-03  0 
 4.328652e-04  -4.088201e-03  0 
 1.690798e-03  -4.803946e-03  0 
 1.121611e-03  -5.747495e-03  0 
 7.284298e-04  -4.810007e-03  0 
 6.412455e-04  -5.068778e-03  0 
 5.481115e-04  -4.527056e-03  0 
 1.000523e-03  -6.721637e-03  0 
 2.556150e-03  -7.622736e-03  0 
 2.053319e-03  -6.981790e-03  0 
 2.009280e-03  -6.573492e-03  0 
VECTORS displacement_ITER11 FLOAT
 4.100013e-04  -3.463543e-03  0 
 1.867289e-03  -4.421192e-03  0 
 7.414634e-04  -6.996591e-03  0 
 2.748608e-03  -7.888817e-03  0 
 3.010445e-04  -3.284925e-03  0 
 4.300651e-04  -3.212050e-03  0 
 6.107412e-04  -3.266304e-03  0 
 8.329551e-04  -3.421963e-03  0 
 1.162725e-03  -3.757217e-03  0 
 6.110065e-04  -4.217133e-03  0 
 7.021944e-04  -4.682203e-03  0 
 7.631764e-04  -5.155709e-03  0 
 7.814709e-04  -5.602438e-03  0 
 7.795508e-04  -6.182933e-03  0 
 2.063781e-03  -5.503737e-03  0 
 2.228508e-03  -6.163664e-03  0 
 2.326715e-03  -6.641349e-03  0 
 2.432070e-03  -7.068852e-03  0 
 2.557092e-03  -7.441130e-03  0 
 1.175520e-03  -7.483041e-03  0 
 1.587367e-03  -7.665983e-03  0 
 1.956766e-03  -7.747555e-03  0 
 2.345904e-03  -7.805293e-03  0 
 2.657851e-03  -7.864965e-03  0 
 1.391321e-03  -6.786944e-03  0 
 1.390121e-03  -5.260482e-03  0 
 1.248267e-03  -4.490212e-03  0 
 9.520335e-04  -5.790452e-03  0 
 1.032062e-03  -5.121992e-03  0 
 1.726349e-03  -6.957810e-03  0 
 9.776197e-04  -6.181481e-03  0 
 2.393072e-03  -7.260595e-03  0 
 1.697527e-03  -7.318488e-03  0 
 2.052108e-03  -7.403843e-03  0 
 1.560751e-03  -6.455238e-03  0 
 1.323147e-03  -6.415630e-03  0 
 9.039636e-04  -4.183362e-03  0 
 1.792674e-03  -5.448887e-03  0 
 2.360460e-03  -7.498732e-03  0 
 1.315449e-03  -7.038782e-03  0 
 4.727816e-04  -4.042562e-03  0 
 7.420944e-04  -5.371382e-03  0 
 2.215818e-03  -6.822816e-03  0 
 1.997752e-03  -6.241288e-03  0 
 6.690611e-04  -4.105071e-03  0 
 5.290564e-04  -4.564774e-03  0 
 1.591010e-03  -6.104238e-03  0 
 4.237589e-04  -4.094703e-03  0 
 1.638026e-03  -4.807437e-03  0 
 1.108793e-03  -5.739848e-03  0 
 7.138728e-04  -4.810999e-03  0 
 6.361669e-04  -5.066195e-03  0 
 5.393114e-04  -4.522616e-03  0 
 9.856340e-04  -6.728847e-03  0 
 2.544529e-03  -7.609057e-03  0 
 2.033331e-03  -6.965545e-03  0 
 1.979744e-03  -6.565492e-03  0 
VECTORS displacement_ITER12 FLOAT
 3.926836e-04  -3.483747e-03  0 
 1.849224e-03  -4.405929e-03  0 
 7.469474e-04  -6.987862e-03  0 
 2.749056e-03  -7.864749e-03  0 
 2.825301e-04  -3.275070e-03  0 
 4.133364e-04  -3.230963e-03  0 
 6.136336e-04  -3.268421e-03  0 
 8.381160e-04  -3.421479e-03  0 
 1.161864e-03  -3.751116e-03  0 
 6.071899e-04  -4.200486e-03  0 
 6.901777e-04  -4.668712e-03  0 
 7.408417e-04  -5.149624e-03  0 
 7.720555e-04  -5.626382e-03  0 
 7.813464e-04  -6.175251e-03  0 
 2.051856e-03  -5.500439e-03  0 
 2.216163e-03  -6.149175e-03  0 
 2.326074e-03  -6.646179e-03  0 
 2.443253e-03  -7.082566e-03  0 
 2.564487e-03  -7.443907e-03  0 
 1.186696e-03  -7.473096e-03  0 
 1.590150e-03  -7.678445e-03  0 
 1.958239e-03  -7.782258e-03  0 
 2.348500e-03  -7.846540e-03  0 
 2.675589e-03  -7.877456e-03  0 
 1.384820e-03  -6.800133e-03  0 
 1.389706e-03  -5.256996e-03  0 
 1.248415e-03  -4.484843e-03  0 
 9.465134e-04  -5.795734e-03  0 
 1.028200e-03  -5.124906e-03  0 
 1.722101e-03  -6.970059e-03  0 
 9.703234e-04  -6.194251e-03  0 
 2.407914e-03  -7.271436e-03  0 
 1.692930e-03  -7.337556e-03  0 
 2.051676e-03  -7.425885e-03  0 
 1.558366e-03  -6.458036e-03  0 
 1.317663e-03  -6.423820e-03  0 
 9.059735e-04  -4.184023e-03  0 
 1.788950e-03  -5.441266e-03  0 
 2.375781e-03  -7.512772e-03  0 
 1.313211e-03  -7.046728e-03  0 
 4.639048e-04  -4.044223e-03  0 
 7.361521e-04  -5.374542e-03  0 
 2.221128e-03  -6.825179e-03  0 
 1.995173e-03  -6.234116e-03  0 
 6.608270e-04  -4.113587e-03  0 
 5.189572e-04  -4.564672e-03  0 
 1.589732e-03  -6.102836e-03  0 
 4.027855e-04  -4.092044e-03  0 
 1.630184e-03  -4.797936e-03  0 
 1.105216e-03  -5.741885e-03  0 
 7.081916e-04  -4.813404e-03  0 
 6.301713e-04  -5.066427e-03  0 
 5.275244e-04  -4.511304e-03  0 
 9.907605e-04  -6.725397e-03  0 
 2.562415e-03  -7.617111e-03  0 
 2.037721e-03  -6.967787e-03  0 
 1.980154e-03  -6.564098e-03  0 
VECTORS displacement_ITER13 FLOAT
 3.801052e-04  -3.499675e-03  0 
 1.833878e-03  -4.398814e-03  0 
 7.301249e-04  -7.024485e-03  0 
 2.758499e-03  -7.855856e-03  0 
 2.926255e-04  -3.291504e-03  0 
 4.316174e-04  -3.223948e-03  0 
 6.006460e-04  -3.267937e-03  0 
 8.227315e-04  -3.418128e-03  0 
 1.172934e-03  -3.737687e-03  0 
 5.900124e-04  -4.211699e-03  0 
 6.843153e-04  -4.675569e-03  0 
 7.355603e-04  -5.128390e-03  0 
 7.634251e-04  -5.617198e-03  0 
 7.776880e-04  -6.167262e-03  0 
 2.056630e-03  -5.500747e-03  0 
 2.213787e-03  -6.150627e-03  0 
 2.324029e-03  -6.635190e-03  0 
 2.439873e-03  -7.063143e-03  0 
 2.562762e-03  -7.433575e-03  0 
 1.184705e-03  -7.478681e-03  0 
 1.582364e-03  -7.667346e-03  0 
 1.961796e-03  -7.768029e-03  0 
 2.336726e-03  -7.829432e-03  0 
 2.678344e-03  -7.854846e-03  0 
 1.385204e-03  -6.792845e-03  0 
 1.386115e-03  -5.254077e-03  0 
 1.242878e-03  -4.485506e-03  0 
 9.434509e-04  -5.787856e-03  0 
 1.026990e-03  -5.114523e-03  0 
 1.719401e-03  -6.961569e-03  0 
 9.693843e-04  -6.188572e-03  0 
 2.403770e-03  -7.254859e-03  0 
 1.691444e-03  -7.323773e-03  0 
 2.048776e-03  -7.416124e-03  0 
 1.557055e-03  -6.450403e-03  0 
 1.316709e-03  -6.417463e-03  0 
 8.952024e-04  -4.178722e-03  0 
 1.786847e-03  -5.442082e-03  0 
 2.372732e-03  -7.492445e-03  0 
 1.312373e-03  -7.043325e-03  0 
 4.680726e-04  -4.045522e-03  0 
 7.300145e-04  -5.359958e-03  0 
 2.219795e-03  -6.813272e-03  0 
 1.994988e-03  -6.229701e-03  0 
 6.615922e-04  -4.100218e-03  0 
 5.171113e-04  -4.566983e-03  0 
 1.590147e-03  -6.094561e-03  0 
 4.027757e-04  -4.103191e-03  0 
 1.632314e-03  -4.784782e-03  0 
 1.102686e-03  -5.735127e-03  0 
 7.046303e-04  -4.805988e-03  0 
 6.232859e-04  -5.062232e-03  0 
 5.229752e-04  -4.521821e-03  0 
 9.927562e-04  -6.724528e-03  0 
 2.561898e-03  -7.599121e-03  0 
 2.038096e-03  -6.956892e-03  0 
 1.980742e-03  -6.555182e-03  0 
VECTORS displacement_ITER14 FLOAT
 3.807906e-04  -3.508824e-03  0 
 1.823971e-03  -4.385563e-03  0 
 7.457624e-04  -7.033690e-03  0 
 2.754834e-03  -7.842132e-03  0 
 2.931508e-04  -3.297354e-03  0 
 4.263849e-04  -3.215434e-03  0 
 6.014025e-04  -3.256361e-03  0 
 8.258215e-04  -3.412568e-03  0 
 1.162997e-03  -3.734155e-03  0 
 5.797569e-04  -4.196341e-03  0 
 6.778611e-04  -4.675861e-03  0 
 7.336991e-04  -5.127062e-03  0 
 7.622594e-04  -5.620970e-03  0 
 7.884383e-04  -6.176451e-03  0 
 2.048632e-03  -5.512023e-03  0 
 2.215352e-03  -6.156964e-03  0 
 2.328000e-03  -6.633726e-03  0 
 2.440097e-03  -7.067085e-03  0 
 2.560444e-03  -7.452291e-03  0 
 1.173699e-03  -7.485745e-03  0 
 1.583848e-03  -7.672696e-03  0 
 1.963759e-03  -7.761524e-03  0 
 2.339644e-03  -7.828820e-03  0 
 2.673356e-03  -7.869539e-03  0 
 1.385175e-03  -6.794310e-03  0 
 1.385723e-03  -5.249938e-03  0 
 1.240632e-03  -4.478713e-03  0 
 9.442856e-04  -5.790779e-03  0 
 1.026136e-03  -5.114819e-03  0 
 1.720628e-03  -6.964249e-03  0 
 9.700025e-04  -6.197046e-03  0 
 2.401696e-03  -7.262858e-03  0 
 1.694812e-03  -7.325019e-03  0 
 2.049077e-03  -7.417175e-03  0 
 1.556182e-03  -6.454146e-03  0 
 1.317282e-03  -6.419983e-03  0 
 8.976791e-04  -4.173516e-03  0 
 1.783587e-03  -5.439923e-03  0 
 2.369288e-03  -7.499920e-03  0 
 1.309412e-03  -7.045769e-03  0 
 4.621358e-04  -4.039669e-03  0 
 7.278483e-04  -5.361631e-03  0 
 2.218835e-03  -6.817196e-03  0 
 1.995471e-03  -6.229463e-03  0 
 6.592997e-04  -4.096062e-03  0 
 5.136303e-04  -4.563159e-03  0 
 1.588166e-03  -6.096947e-03  0 
 3.989138e-04  -4.096104e-03  0 
 1.621423e-03  -4.783742e-03  0 
 1.102132e-03  -5.737913e-03  0 
 7.022702e-04  -4.805222e-03  0 
 6.219130e-04  -5.061453e-03  0 
 5.203919e-04  -4.517363e-03  0 
 9.930803e-04  -6.735008e-03  0 
 2.564558e-03  -7.607663e-03  0 
 2.035102e-03  -6.962732e-03  0 
 1.979240e-03  -6.558351e-03  0 
VECTORS displacement_ITER15 FLOAT
 3.823598e-04  -3.514868e-03  0 
 1.820786e-03  -4.378979e-03  0 
 7.470233e-04  -7.043535e-03  0 
 2.762606e-03  -7.836847e-03  0 
 2.931614e-04  -3.299590e-03  0 
 4.130099e-04  -3.224618e-03  0 
 6.000659e-04  -3.261160e-03  0 
 8.270171e-04  -3.413967e-03  0 
 1.157573e-03  -3.726807e-03  0 
 5.784167e-04  -4.181321e-03  0 