# vtk DataFile Version 3.1
this is an vtk file created by FEMAC
ASCII
DATASET UNSTRUCTURED_GRID
POINTS 57 FLOAT
3.000000 2.000000 0.000000
3.000000 3.000000 0.000000
4.000000 2.000000 0.000000
4.000000 3.000000 0.000000
3.000000 2.166667 0.000000
3.000000 2.333333 0.000000
3.000000 2.500000 0.000000
3.000000 2.666667 0.000000
3.000000 2.833333 0.000000
3.166667 2.000000 0.000000
3.333333 2.000000 0.000000
3.500000 2.000000 0.000000
3.666667 2.000000 0.000000
3.833333 2.000000 0.000000
3.166667 3.000000 0.000000
3.333333 3.000000 0.000000
3.500000 3.000000 0.000000
3.666667 3.000000 0.000000
3.833333 3.000000 0.000000
4.000000 2.166667 0.000000
4.000000 2.333333 0.000000
4.000000 2.500000 0.000000
4.000000 2.666667 0.000000
4.000000 2.833333 0.000000
3.546208 2.498148 0.000000
3.269958 2.346567 0.000000
3.749603 2.322222 0.000000
3.286469 2.673883 0.000000
3.737144 2.651426 0.000000
3.231162 2.152088 0.000000
3.138994 2.754613 0.000000
3.570784 2.307155 0.000000
3.591863 2.673682 0.000000
3.407777 2.195268 0.000000
3.772267 2.498630 0.000000
3.415578 2.410512 0.000000
3.424037 2.589571 0.000000
3.279354 2.509296 0.000000
3.733238 2.154960 0.000000
3.584478 2.852123 0.000000
3.140785 2.592992 0.000000
3.883804 2.414587 0.000000
3.882869 2.586018 0.000000
3.654036 2.550994 0.000000
3.658124 2.431010 0.000000
3.238868 2.852861 0.000000
3.874923 2.746090 0.000000
3.880552 2.245850 0.000000
3.120599 2.251375 0.000000
3.575693 2.131477 0.000000
3.422721 2.806017 0.000000
3.139140 2.426259 0.000000
3.728623 2.806665 0.000000
3.889425 2.113495 0.000000
3.108906 2.888162 0.000000
3.103685 2.114026 0.000000
3.850591 2.897681 0.000000
CELLS 88 352 
3 30  8  7
3 33 25 29
3 24 35 31
3 36 24 32
3 24 36 35
3 37 25 35
3 7 40 30
3 40 27 30
3 21 41 20
3 26 41 34
3 42 21 22
3 42 28 34
3 24 43 32
3 28 43 34
3 43 28 32
3 44 24 31
3 44 26 34
3 26 44 31
3 45 15 14
3 23 46 22
3 47 19 20
3 41 47 20
3 41 26 47
3 46 42 22
3 28 42 46
3 13 38 12
3 33 35 25
3 33 31 35
3 42 41 21
3 34 41 42
3 44 43 24
3 34 43 44
3 37 36 27
3 35 36 37
3 10 11 33
3 29 10 33
3 29  9 10
3 6 40  7
3 37 27 40
3 38 26 31
3 16 39 17
3 47 26 38
3 27 45 30
3 48 29 25
3 11 49 33
3 31 49 38
3 49 31 33
3 50 45 27
3 51 40  6
3 40 51 37
3 46 52 28
3 53 13  2
3 53 19 47
3 19 53  2
3 8 54  1
3 54 14  1
3 36 50 27
3 36 32 50
3 52 32 28
3 39 32 52
3 53 38 13
3 47 38 53
3 5 51  6
3 5 48 51
3 51 25 37
3 48 25 51
3 14 54 45
3 54 30 45
3 30 54  8
3 39 52 17
3 11 12 49
3 12 38 49
3 50 39 16
3 39 50 32
3 15 45 50
3 15 50 16
3 4 48  5
3 55  4  0
3 55  9 29
3 9 55  0
3 55 48  4
3 29 48 55
3 18 56  3
3 56 23  3
3 17 56 18
3 46 56 52
3 56 46 23
3 17 52 56
CELL_TYPES 88
5 5 5 5 5 5 5 5 5 5 5 5 5 5 5 5 5 5 5 5 5 5 5 5 5 5 5 5 5 5 5 5 5 5 5 5 5 5 5 5 5 5 5 5 5 5 5 5 5 5 5 5 5 5 5 5 5 5 5 5 5 5 5 5 5 5 5 5 5 5 5 5 5 5 5 5 5 5 5 5 5 5 5 5 5 5 5 5 
POINT_DATA 57
VECTORS displacement_ITER1 FLOAT
 -1.193808e-03  -9.897190e-03  0 
 1.794841e-03  -1.004993e-02  0 
 -2.962712e-03  -1.664691e-02  0 
 4.444043e-03  -1.578914e-02  0 
 -1.809226e-03  -7.336429e-03  0 
 -3.701681e-04  -7.205433e-03  0 
 4.990305e-04  -7.342867e-03  0 
 5.098685e-04  -7.572639e-03  0 
 1.221922e-03  -7.318065e-03  0 
 -1.730575e-03  -1.134081e-02  0 
 -2.082373e-03  -1.223950e-02  0 
 -2.226595e-03  -1.308186e-02  0 
 -2.348487e-03  -1.369503e-02  0 
 -2.145356e-03  -1.444006e-02  0 
 2.690221e-03  -1.185661e-02  0 
 2.755456e-03  -1.278821e-02  0 
 2.849719e-03  -1.339145e-02  0 
 2.887165e-03  -1.362722e-02  0 
 3.647556e-03  -1.441838e-02  0 
 -1.153215e-03  -1.556106e-02  0 
 -4.972137e-04  -1.477973e-02  0 
 4.668867e-04  -1.531482e-02  0 
 1.759880e-03  -1.496632e-02  0 
 2.486133e-03  -1.531997e-02  0 
 4.323248e-04  -1.283975e-02  0 
 -5.387857e-04  -1.066728e-02  0 
 -5.491574e-04  -1.421557e-02  0 
 1.228718e-03  -1.080468e-02  0 
 1.485009e-03  -1.398836e-02  0 
 -1.720875e-03  -1.084908e-02  0 
 1.073282e-03  -9.524016e-03  0 
 -7.885632e-04  -1.312657e-02  0 
 1.678536e-03  -1.320192e-02  0 
 -1.516668e-03  -1.212865e-02  0 
 4.845165e-04  -1.410553e-02  0 
 -1.875558e-04  -1.185024e-02  0 
 9.702210e-04  -1.189585e-02  0 
 3.962834e-04  -1.045691e-02  0 
 -1.456585e-03  -1.406543e-02  0 
 2.559742e-03  -1.335708e-02  0 
 6.623019e-04  -8.956141e-03  0 
 -1.463714e-04  -1.467871e-02  0 
 1.164877e-03  -1.459567e-02  0 
 8.195528e-04  -1.356198e-02  0 
 6.178786e-05  -1.362949e-02  0 
 2.135384e-03  -1.143564e-02  0 
 2.002062e-03  -1.460800e-02  0 
 -7.645773e-04  -1.477611e-02  0 
 -1.041414e-03  -9.264468e-03  0 
 -1.739117e-03  -1.317882e-02  0 
 2.270914e-03  -1.250342e-02  0 
 9.417034e-05  -9.046631e-03  0 
 2.461670e-03  -1.378342e-02  0 
 -1.470475e-03  -1.476680e-02  0 
 2.033867e-03  -9.945044e-03  0 
 -1.872991e-03  -9.536178e-03  0 
 2.917728e-03  -1.417054e-02  0 
VECTORS displacement_ITER2 FLOAT
 -1.453824e-03  -6.654555e-03  0 
 1.147780e-03  -8.036664e-03  0 
 -2.425811e-03  -1.163123e-02  0 
 2.915935e-03  -1.207896e-02  0 
 -8.977981e-04  -6.720982e-03  0 
 -5.346892e-04  -6.604438e-03  0 
 -5.271884e-05  -7.283165e-03  0 
 9.274387e-04  -6.877781e-03  0 
 1.186806e-03  -7.051114e-03  0 
 -5.418866e-04  -8.690284e-03  0 
 -1.021168e-03  -8.944911e-03  0 
 -1.262853e-03  -9.998987e-03  0 
 -1.608925e-03  -1.102256e-02  0 
 -1.601757e-03  -1.172432e-02  0 
 1.463145e-03  -8.870862e-03  0 
 1.813454e-03  -1.000738e-02  0 
 1.769836e-03  -1.079908e-02  0 
 1.792682e-03  -1.138529e-02  0 
 2.323766e-03  -1.189458e-02  0 
 -1.169676e-03  -1.164287e-02  0 
 -5.568458e-04  -1.155525e-02  0 
 1.615195e-04  -1.184165e-02  0 
 1.209139e-03  -1.192297e-02  0 
 1.720013e-03  -1.181253e-02  0 
 2.371403e-04  -1.017554e-02  0 
 -3.313583e-04  -8.767640e-03  0 
 -4.937650e-04  -1.096913e-02  0 
 6.930089e-04  -9.141645e-03  0 
 9.260588e-04  -1.099682e-02  0 
 -9.404145e-04  -8.435926e-03  0 
 1.034707e-03  -8.112106e-03  0 
 -4.189800e-04  -1.021546e-02  0 
 9.494722e-04  -1.052868e-02  0 
 -7.525692e-04  -9.393202e-03  0 
 2.510449e-04  -1.099077e-02  0 
 -9.021145e-05  -9.550861e-03  0 
 5.343671e-04  -9.715999e-03  0 
 2.215691e-04  -8.900510e-03  0 
 -1.077651e-03  -1.102767e-02  0 
 1.494017e-03  -1.086978e-02  0 
 3.774734e-04  -8.220180e-03  0 
 -2.146810e-04  -1.138158e-02  0 
 6.833179e-04  -1.140736e-02  0 
 4.728955e-04  -1.062664e-02  0 
 2.464706e-06  -1.057214e-02  0 
 1.324674e-03  -8.968479e-03  0 
 1.436448e-03  -1.156034e-02  0 
 -8.305785e-04  -1.132637e-02  0 
 -7.246496e-04  -7.724570e-03  0 
 -1.003234e-03  -1.028414e-02  0 
 1.235885e-03  -1.012519e-02  0 
 -7.304513e-05  -7.970682e-03  0 
 1.575272e-03  -1.112801e-02  0 
 -1.476441e-03  -1.130413e-02  0 
 1.355628e-03  -8.140029e-03  0 
 -8.500004e-04  -7.969317e-03  0 
 1.961921e-03  -1.149282e-02  0 
VECTORS displacement_ITER3 FLOAT
 -1.706650e-03  -6.542909e-03  0 
 1.477781e-03  -6.399063e-03  0 
 -2.380142e-03  -1.092442e-02  0 
 1.753872e-03  -1.117583e-02  0 
 -1.465944e-03  -7.143444e-03  0 
 -6.349369e-04  -7.092379e-03  0 
 -1.410336e-04  -7.339046e-03  0 
 3.224924e-04  -7.022383e-03  0 
 3.880977e-04  -6.998536e-03  0 
 -1.140764e-03  -8.242059e-03  0 
 -1.331005e-03  -8.653347e-03  0 
 -1.482345e-03  -9.467112e-03  0 
 -1.415246e-03  -1.003707e-02  0 
 -1.585760e-03  -1.073578e-02  0 
 6.510457e-04  -7.979291e-03  0 
 7.740741e-04  -8.590638e-03  0 
 9.052182e-04  -9.274228e-03  0 
 1.222743e-03  -1.007345e-02  0 
 1.400896e-03  -1.056742e-02  0 
 -1.332589e-03  -1.075115e-02  0 
 -8.306951e-04  -1.110439e-02  0 
 -2.286560e-04  -1.105549e-02  0 
 5.806049e-04  -1.105997e-02  0 
 1.097764e-03  -1.064997e-02  0 
 -2.356038e-04  -9.481802e-03  0 
 -6.366244e-04  -8.594710e-03  0 
 -8.304960e-04  -1.016775e-02  0 
 1.982618e-04  -8.479691e-03  0 
 3.322400e-04  -1.007563e-02  0 
 -1.155079e-03  -8.321541e-03  0 
 3.762298e-04  -7.760957e-03  0 
 -7.676862e-04  -9.632205e-03  0 
 2.850646e-04  -9.607274e-03  0 
 -9.913436e-04  -9.060514e-03  0 
 -2.007536e-04  -1.021952e-02  0 
 -4.775427e-04  -9.080392e-03  0 
 1.951331e-05  -9.027827e-03  0 
 -1.738248e-04  -8.507882e-03  0 
 -1.245329e-03  -1.019436e-02  0 
 7.248657e-04  -9.591288e-03  0 
 2.606361e-05  -7.895566e-03  0 
 -5.207361e-04  -1.064681e-02  0 
 1.435619e-04  -1.057733e-02  0 
 -4.749357e-05  -9.804424e-03  0 
 -4.401158e-04  -9.835878e-03  0 
 5.783963e-04  -8.245445e-03  0 
 8.066934e-04  -1.053334e-02  0 
 -1.133161e-03  -1.055398e-02  0 
 -9.967735e-04  -7.939847e-03  0 
 -1.200622e-03  -9.749901e-03  0 
 5.333598e-04  -8.991944e-03  0 
 -3.234559e-04  -7.953220e-03  0 
 7.645878e-04  -1.014651e-02  0 
 -1.527500e-03  -1.045894e-02  0 
 5.601511e-04  -7.802689e-03  0 
 -1.232963e-03  -7.773836e-03  0 
 1.084059e-03  -1.050533e-02  0 
VECTORS displacement_ITER4 FLOAT
 -1.561166e-03  -7.281650e-03  0 
 1.097263e-03  -7.232958e-03  0 
 -2.091320e-03  -1.037139e-02  0 
 1.085300e-03  -1.082443e-02  0 
 -1.273226e-03  -6.616419e-03  0 
 -6.234851e-04  -6.449423e-03  0 
 -2.480592e-04  -6.315927e-03  0 
 1.209664e-04  -6.457737e-03  0 
 7.172561e-04  -6.828305e-03  0 
 -1.562834e-03  -7.890323e-03  0 
 -1.917042e-03  -8.561556e-03  0 
 -2.087595e-03  -9.322642e-03  0 
 -1.931032e-03  -9.780331e-03  0 
 -1.975413e-03  -1.038592e-02  0 
 1.019448e-03  -7.839727e-03  0 
 1.174641e-03  -8.548419e-03  0 
 1.223908e-03  -9.191750e-03  0 
 1.309288e-03  -9.976474e-03  0 
 1.124014e-03  -1.047073e-02  0 
 -1.549656e-03  -1.095844e-02  0 
 -8.770952e-04  -1.138937e-02  0 
 -3.228119e-04  -1.130683e-02  0 
 2.180218e-04  -1.128440e-02  0 
 8.182752e-04  -1.104723e-02  0 
 -3.218194e-04  -9.525780e-03  0 
 -8.435973e-04  -8.122840e-03  0 
 -1.018319e-03  -1.030041e-02  0 
 3.413496e-04  -8.255302e-03  0 
 2.308415e-04  -1.032360e-02  0 
 -1.461228e-03  -8.003129e-03  0 
 5.574923e-04  -7.536610e-03  0 
 -1.064654e-03  -9.611581e-03  0 
 3.067184e-04  -9.731997e-03  0 
 -1.401907e-03  -8.856745e-03  0 
 -3.167959e-04  -1.050999e-02  0 
 -6.522340e-04  -8.880943e-03  0 
 3.709430e-05  -8.949647e-03  0 
 -2.599430e-04  -8.134165e-03  0 
 -1.628932e-03  -1.014410e-02  0 
 8.426864e-04  -9.625050e-03  0 
 1.198889e-05  -7.312423e-03  0 
 -5.956119e-04  -1.092000e-02  0 
 -3.269586e-05  -1.090696e-02  0 
 -1.241901e-04  -9.999778e-03  0 
 -5.995080e-04  -9.996774e-03  0 
 8.509016e-04  -8.087378e-03  0 
 5.478227e-04  -1.077238e-02  0 
 -1.315863e-03  -1.070968e-02  0 
 -1.058084e-03  -7.371001e-03  0 
 -1.674443e-03  -9.638887e-03  0 
 7.438183e-04  -8.935153e-03  0 
 -4.968566e-04  -7.280204e-03  0 
 7.068028e-04  -1.026522e-02  0 
 -1.802592e-03  -1.051611e-02  0 
 9.131649e-04  -7.554150e-03  0 
 -1.492334e-03  -7.470192e-03  0 
 9.622315e-04  -1.065475e-02  0 
VECTORS displacement_ITER5 FLOAT
 -1.755727e-03  -7.104129e-03  0 
 1.065854e-03  -6.949152e-03  0 
 -2.077083e-03  -1.078336e-02  0 
 9.393929e-04  -1.090470e-02  0 
 -1.058773e-03  -6.731471e-03  0 
 -6.452780e-04  -6.627635e-03  0 
 -2.382768e-04  -6.434803e-03  0 
 1.083036e-04  -6.619686e-03  0 
 5.483481e-04  -6.803526e-03  0 
 -1.650657e-03  -8.082926e-03  0 
 -1.733212e-03  -8.647422e-03  0 
 -1.830152e-03  -9.192154e-03  0 
 -1.869294e-03  -9.643766e-03  0 
 -1.965528e-03  -1.015649e-02  0 
 9.256665e-04  -8.003389e-03  0 
 8.764696e-04  -8.701014e-03  0 
 8.698256e-04  -9.156631e-03  0 
 8.953076e-04  -9.647861e-03  0 
 8.850773e-04  -1.016361e-02  0 
 -1.519047e-03  -1.088811e-02  0 
 -1.055151e-03  -1.086837e-02  0 
 -4.764877e-04  -1.093256e-02  0 
 -4.855644e-06  -1.087088e-02  0 
 5.142432e-04  -1.092030e-02  0 
 -4.098957e-04  -9.466546e-03  0 
 -8.252809e-04  -8.203367e-03  0 
 -1.004884e-03  -1.015576e-02  0 
 2.138535e-04  -8.299719e-03  0 
 1.622596e-05  -1.012357e-02  0 
 -1.382146e-03  -8.199544e-03  0 
 3.797486e-04  -7.602304e-03  0 
 -1.050503e-03  -9.541716e-03  0 
 1.353813e-04  -9.615725e-03  0 
 -1.359187e-03  -8.895078e-03  0 
 -4.692893e-04  -1.025170e-02  0 
 -6.729551e-04  -8.903484e-03  0 
 -7.532162e-05  -8.947418e-03  0 
 -3.090545e-04  -8.223142e-03  0 
 -1.514116e-03  -9.983212e-03  0 
 5.999880e-04  -9.482926e-03  0 
 -1.832800e-05  -7.429113e-03  0 
 -7.565536e-04  -1.056957e-02  0 
 -2.052691e-04  -1.059224e-02  0 
 -2.728207e-04  -9.862791e-03  0 
 -6.559219e-04  -9.884462e-03  0 
 6.441572e-04  -8.233756e-03  0 
 2.331149e-04  -1.049970e-02  0 
 -1.250960e-03  -1.053309e-02  0 
 -9.606981e-04  -7.464867e-03  0 
 -1.555845e-03  -9.473602e-03  0 
 5.596616e-04  -8.947706e-03  0 
 -5.214930e-04  -7.420141e-03  0 
 4.394137e-04  -1.000388e-02  0 
 -1.655280e-03  -1.045564e-02  0 
 7.094191e-04  -7.592073e-03  0 
 -1.376909e-03  -7.626520e-03  0 
 6.398154e-04  -1.033528e-02  0 
VECTORS displacement_ITER6 FLOAT
 -1.748618e-03  -7.343684e-03  0 
 9.025957e-04  -6.974292e-03  0 
 -1.937526e-03  -1.084531e-02  0 
 8.534070e-04  -1.078840e-02  0 
 -1.129263e-03  -6.761487e-03  0 
 -7.536491e-04  -6.536813e-03  0 
 -3.000787e-04  -6.431287e-03  0 
 1.220073e-04  -6.526279e-03  0 
 4.037088e-04  -6.645889e-03  0 
 -1.751303e-03  -8.057850e-03  0 
 -1.808078e-03  -8.669481e-03  0 
 -1.860366e-03  -9.203119e-03  0 
 -1.915142e-03  -9.730816e-03  0 
 -1.901518e-03  -1.023104e-02  0 
 8.180091e-04  -8.029974e-03  0 
 8.129345e-04  -8.672574e-03  0 
 8.474975e-04  -9.183857e-03  0 
 8.708946e-04  -9.611176e-03  0 
 9.000311e-04  -1.005281e-02  0 
 -1.537112e-03  -1.094637e-02  0 
 -1.112793e-03  -1.084342e-02  0 
 -5.756581e-04  -1.093051e-02  0 
 -2.572933e-05  -1.090936e-02  0 
 4.701679e-04  -1.095668e-02  0 
 -4.697950e-04  -9.477114e-03  0 
 -8.859257e-04  -8.220058e-03  0 
 -1.052984e-03  -1.021555e-02  0 
 1.469168e-04  -8.257566e-03  0 
 -4.568061e-05  -1.011681e-02  0 
 -1.472235e-03  -8.201590e-03  0 
 3.079220e-04  -7.496384e-03  0 
 -1.091426e-03  -9.594636e-03  0 
 8.506665e-05  -9.594352e-03  0 
 -1.420352e-03  -8.933596e-03  0 
 -5.402384e-04  -1.026110e-02  0 
 -7.226098e-04  -8.929053e-03  0 
 -1.328016e-04  -8.929036e-03  0 
 -3.545413e-04  -8.217927e-03  0 
 -1.521902e-03  -1.008506e-02  0 
 5.824712e-04  -9.472626e-03  0 
 -6.453671e-05  -7.408122e-03  0 
 -8.380898e-04  -1.059066e-02  0 
 -2.761198e-04  -1.058621e-02  0 
 -3.368062e-04  -9.868719e-03  0 
 -7.117488e-04  -9.914791e-03  0 
 5.897367e-04  -8.183823e-03  0 
 1.968136e-04  -1.051599e-02  0 
 -1.276438e-03  -1.058612e-02  0 
 -1.064925e-03  -7.438444e-03  0 
 -1.583020e-03  -9.516285e-03  0 
 5.103629e-04  -8.916485e-03  0 
 -5.723981e-04  -7.409117e-03  0 
 4.279653e-04  -9.976640e-03  0 
 -1.631196e-03  -1.054687e-02  0 
 6.137216e-04  -7.543342e-03  0 
 -1.481906e-03  -7.635360e-03  0 
 6.384056e-04  -1.028655e-02  0 
VECTORS displacement_ITER7 FLOAT
 -1.747778e-03  -7.422914e-03  0 
 8.407525e-04  -7.117948e-03  0 
 -1.895648e-03  -1.081137e-02  0 
 8.118904e-04  -1.068299e-02  0 
 -1.130808e-03  -6.744582e-03  0 
 -7.241210e-04  -6.432374e-03  0 
 -3.142281e-04  -6.416462e-03  0 
 1.542795e-04  -6.417672e-03  0 
 5.247412e-04  -6.602489e-03  0 
 -1.760527e-03  -7.989416e-03  0 
 -1.848387e-03  -8.694579e-03  0 
 -1.897783e-03  -9.278195e-03  0 
 -1.938927e-03  -9.808194e-03  0 
 -1.920387e-03  -1.030248e-02  0 
 8.574826e-04  -8.015452e-03  0 
 8.557591e-04  -8.576160e-03  0 
 8.648227e-04  -9.166858e-03  0 
 8.397976e-04  -9.703295e-03  0 
 8.569197e-04  -1.013629e-02  0 
 -1.613323e-03  -1.098517e-02  0 
 -1.052147e-03  -1.098735e-02  0 
 -5.303983e-04  -1.095321e-02  0 
 -4.942244e-05  -1.099535e-02  0 
 4.464313e-04  -1.098475e-02  0 
 -4.546710e-04  -9.519224e-03  0 
 -8.811741e-04  -8.216538e-03  0 
 -1.054480e-03  -1.025422e-02  0 
 1.769103e-04  -8.279842e-03  0 
 -3.410316e-05  -1.018052e-02  0 
 -1.483243e-03  -8.180030e-03  0 
 3.909635e-04  -7.472702e-03  0 
 -1.095039e-03  -9.634572e-03  0 
 1.039539e-04  -9.643985e-03  0 
 -1.426546e-03  -8.961211e-03  0 
 -5.118680e-04  -1.035074e-02  0 
 -7.180965e-04  -8.947129e-03  0 
 -1.071009e-04  -8.955047e-03  0 
 -3.393722e-04  -8.205199e-03  0 
 -1.552846e-03  -1.014620e-02  0 
 5.758045e-04  -9.524364e-03  0 
 -6.914429e-05  -7.386883e-03  0 
 -7.741844e-04  -1.067143e-02  0 
 -2.769833e-04  -1.066754e-02  0 
 -3.150831e-04  -9.930330e-03  0 
 -7.055486e-04  -9.964739e-03  0 
 6.685962e-04  -8.146477e-03  0 
 1.955093e-04  -1.057623e-02  0 
 -1.307635e-03  -1.063017e-02  0 
 -1.074340e-03  -7.407818e-03  0 
 -1.607119e-03  -9.581164e-03  0 
 5.285673e-04  -8.932128e-03  0 
 -5.479526e-04  -7.364609e-03  0 
 4.347728e-04  -1.002692e-02  0 
 -1.679659e-03  -1.061447e-02  0 
 7.068748e-04  -7.503487e-03  0 
 -1.508941e-03  -7.617879e-03  0 
 6.445330e-04  -1.033875e-02  0 
VECTORS displacement_ITER8 FLOAT
 -1.808586e-03  -7.212943e-03  0 
 8.446938e-04  -7.064668e-03  0 
 -1.944481e-03  -1.091582e-02  0 
 8.643753e-04  -1.067270e-02  0 
 -1.118086e-03  -6.822193e-03  0 
 -6.625660e-04  -6.576308e-03  0 
 -3.161398e-04  -6.549898e-03  0 
 3.710523e-05  -6.536911e-03  0 
 4.687811e-04  -6.711443e-03  0 
 -1.715404e-03  -8.008571e-03  0 
 -1.688696e-03  -8.638909e-03  0 
 -1.722475e-03  -9.188235e-03  0 
 -1.790423e-03  -9.675103e-03  0 
 -1.867697e-03  -1.015056e-02  0 
 7.689931e-04  -8.110361e-03  0 
 7.282885e-04  -8.618009e-03  0 
 7.360209e-04  -9.083829e-03  0 
 7.395906e-04  -9.566765e-03  0 
 8.151547e-04  -1.005931e-02  0 
 -1.555595e-03  -1.082574e-02  0 
 -1.049270e-03  -1.083578e-02  0 
 -5.899131e-04  -1.085731e-02  0 
 -9.908492e-05  -1.088575e-02  0 
 4.093533e-04  -1.082940e-02  0 
 -4.685668e-04  -9.451131e-03  0 
 -8.535351e-04  -8.246413e-03  0 
 -1.037819e-03  -1.014001e-02  0 
 1.302518e-04  -8.304027e-03  0 
 -7.180954e-05  -1.005865e-02  0 
 -1.402610e-03  -8.232158e-03  0 
 3.065556e-04  -7.576972e-03  0 
 -1.070753e-03  -9.552111e-03  0 
 6.446213e-05  -9.559113e-03  0 
 -1.352869e-03  -8.933084e-03  0 
 -5.394883e-04  -1.023523e-02  0 
 -7.173009e-04  -8.912636e-03  0 
 -1.347973e-04  -8.924989e-03  0 
 -3.608036e-04  -8.211195e-03  0 
 -1.467172e-03  -9.996853e-03  0 
 5.008232e-04  -9.423542e-03  0 
 -1.250520e-04  -7.440208e-03  0 
 -8.017620e-04  -1.055548e-02  0 
 -3.218579e-04  -1.054364e-02  0 
 -3.397563e-04  -9.832092e-03  0 
 -7.101759e-04  -9.870482e-03  0 
 5.791381e-04  -8.225031e-03  0 
 1.546116e-04  -1.043605e-02  0 
 -1.263166e-03  -1.049189e-02  0 
 -1.014790e-03  -7.502803e-03  0 
 -1.503450e-03  -9.476340e-03  0 
 4.688112e-04  -8.909815e-03  0 
 -5.304724e-04  -7.434548e-03  0 
 3.703038e-04  -9.903699e-03  0 
 -1.586164e-03  -1.048102e-02  0 
 6.173168e-04  -7.596058e-03  0 
 -1.441236e-03  -7.648244e-03  0 
 5.756689e-04  -1.021010e-02  0 
VECTORS displacement_ITER9 FLOAT
 -1.697217e-03  -7.176199e-03  0 
 7.629903e-04  -7.060765e-03  0 
 -1.976033e-03  -1.085515e-02  0 
 8.712060e-04  -1.061406e-02  0 
 -1.195647e-03  -6.770060e-03  0 
 -7.547098e-04  -6.516999e-03  0 
 -3.421207e-04  -6.415005e-03  0 
 -9.518989e-06  -6.435387e-03  0 
 3.707919e-04  -6.598536e-03  0 
 -1.757469e-03  -7.992464e-03  0 
 -1.802035e-03  -8.616461e-03  0 
 -1.841135e-03  -9.236987e-03  0 
 -1.833090e-03  -9.732043e-03  0 
 -1.886645e-03  -1.024245e-02  0 
 6.925603e-04  -7.994536e-03  0 
 7.161709e-04  -8.559254e-03  0 
 7.456176e-04  -9.079777e-03  0 
 7.635078e-04  -9.581331e-03  0 
 7.779417e-04  -1.008290e-02  0 
 -1.611665e-03  -1.088570e-02  0 
 -1.121147e-03  -1.094806e-02  0 
 -6.148221e-04  -1.093582e-02  0 
 -1.140844e-04  -1.090854e-02  0 
 3.677005e-04  -1.082715e-02  0 
 -5.158118e-04  -9.436060e-03  0 
 -9.101947e-04  -8.193959e-03  0 
 -1.101495e-03  -1.017438e-02  0 
 8.618152e-05  -8.221026e-03  0 
 -9.581920e-05  -1.008054e-02  0 
 -1.462313e-03  -8.152559e-03  0 
 2.494439e-04  -7.468621e-03  0 
 -1.125183e-03  -9.563891e-03  0 
 3.151587e-05  -9.551847e-03  0 
 -1.407371e-03  -8.917162e-03  0 
 -5.736111e-04  -1.025929e-02  0 
 -7.677342e-04  -8.883256e-03  0 
 -1.838177e-04  -8.884290e-03  0 
 -4.139355e-04  -8.158445e-03  0 
 -1.544519e-03  -1.006203e-02  0 
 4.920510e-04  -9.417790e-03  0 
 -1.566469e-04  -7.341361e-03  0 
 -8.476885e-04  -1.060985e-02  0 
 -3.362887e-04  -1.058320e-02  0 
 -3.775775e-04  -9.836287e-03  0 
 -7.590009e-04  -9.876768e-03  0 
 5.338281e-04  -8.126968e-03  0 
 1.356093e-04  -1.046769e-02  0 
 -1.344803e-03  -1.055935e-02  0 
 -1.091302e-03  -7.425957e-03  0 
 -1.579813e-03  -9.536995e-03  0 
 4.377752e-04  -8.860030e-03  0 
 -5.974656e-04  -7.372009e-03  0 
 3.584869e-04  -9.923284e-03  0 
 -1.664999e-03  -1.052512e-02  0 
 5.639393e-04  -7.514163e-03  0 
 -1.471958e-03  -7.547979e-03  0 
 5.648300e-04  -1.022238e-02  0 
VECTORS displacement_ITER10 FLOAT
 -1.701532e-03  -7.129923e-03  0 
 7.248984e-04  -7.088030e-03  0 
 -2.034590e-03  -1.079331e-02  0 
 8.475495e-04  -1.059968e-02  0 
 -1.123913e-03  -6.699537e-03  0 
 -7.332897e-04  -6.480036e-03  0 
 -3.387439e-04  -6.355585e-03  0 
 4.517159e-05  -6.411014e-03  0 
 4.108230e-04  -6.595228e-03  0 
 -1.694101e-03  -7.963969e-03  0 
 -1.765981e-03  -8.595019e-03  0 
 -1.831039e-03  -9.181915e-03  0 
 -1.858003e-03  -9.688889e-03  0 
 -1.915947e-03  -1.017527e-02  0 
 7.085627e-04  -7.956379e-03  0 
 7.442105e-04  -8.549049e-03  0 
 7.555424e-04  -9.083268e-03  0 
 7.675336e-04  -9.575561e-03  0 
 7.552752e-04  -1.009827e-02  0 
 -1.591668e-03  -1.087515e-02  0 
 -1.114471e-03  -1.090697e-02  0 
 -5.887172e-04  -1.093219e-02  0 
 -8.601577e-05  -1.090786e-02  0 
 3.791109e-04  -1.085450e-02  0 
 -4.969843e-04  -9.407575e-03  0 
 -8.935452e-04  -8.138533e-03  0 
 -1.085710e-03  -1.014278e-02  0 
 1.093076e-04  -8.197154e-03  0 
 -7.826931e-05  -1.007240e-02  0 
 -1.431423e-03  -8.114475e-03  0 
 2.882656e-04  -7.438569e-03  0 
 -1.113794e-03  -9.516903e-03  0 
 4.776036e-05  -9.538396e-03  0 
 -1.398733e-03  -8.863317e-03  0 
 -5.569394e-04  -1.023330e-02  0 
 -7.494685e-04  -8.843383e-03  0 
 -1.649264e-04  -8.860716e-03  0 
 -3.932934e-04  -8.129621e-03  0 
 -1.552121e-03  -1.000835e-02  0 
 5.071366e-04  -9.413587e-03  0 
 -1.250271e-04  -7.319251e-03  0 
 -8.366545e-04  -1.058084e-02  0 
 -3.102369e-04  -1.057425e-02  0 
 -3.609299e-04  -9.814550e-03  0 
 -7.407580e-04  -9.847329e-03  0 
 5.556726e-04  -8.092289e-03  0 
 1.502679e-04  -1.047639e-02  0 
 -1.327768e-03  -1.052849e-02  0 
 -1.049261e-03  -7.372787e-03  0 
 -1.578784e-03  -9.478098e-03  0 
 4.546791e-04  -8.848693e-03  0 
 -5.911746e-04  -7.324205e-03  0 
 3.703421e-04  -9.925355e-03  0 
 -1.678192e-03  -1.046617e-02  0 
 5.877411e-04  -7.476640e-03  0 
 -1.429188e-03  -7.530233e-03  0 
 5.709424e-04  -1.023988e-02  0 
VECTORS displacement_ITER11 FLOAT
 -1.696205e-03  -7.110550e-03  0 
 7.546914e-04  -7.011400e-03  0 
 -2.032042e-03  -1.076223e-02  0 
 8.834438e-04  -1.063216e-02  0 
 -1.167702e-03  -6.704323e-03  0 
 -7.292283e-04  -6.495367e-03  0 
 -3.481354e-04  -6.417379e-03  0 
 1.954822e-05  -6.472351e-03  0 
 3.676434e-04  -6.619904e-03  0 
 -1.692446e-03  -7.977184e-03  0 
 -1.750634e-03  -8.620352e-03  0 
 -1.810225e-03  -9.184652e-03  0 
 -1.846121e-03  -9.692634e-03  0 
 -1.889010e-03  -1.017808e-02  0 
 6.953006e-04  -7.994347e-03  0 
 6.984101e-04  -8.601369e-03  0 
 7.026305e-04  -9.088667e-03  0 
 7.286155e-04  -9.530462e-03  0 
 7.682733e-04  -1.006075e-02  0 
 -1.587941e-03  -1.085871e-02  0 
 -1.112834e-03  -1.086295e-02  0 
 -5.945467e-04  -1.088829e-02  0 
 -1.014901e-04  -1.087187e-02  0 
 3.861804e-04  -1.084102e-02  0 
 -5.013624e-04  -9.402259e-03  0 
 -8.915316e-04  -8.163642e-03  0 
 -1.082551e-03  -1.012914e-02  0 
 8.740291e-05  -8.216790e-03  0 
 -8.874164e-05  -1.004380e-02  0 
 -1.428614e-03  -8.135511e-03  0 
 2.454983e-04  -7.475768e-03  0 
 -1.109277e-03  -9.517145e-03  0 
 4.106935e-05  -9.522016e-03  0 
 -1.392969e-03  -8.878207e-03  0 
 -5.642743e-04  -1.021127e-02  0 
 -7.491092e-04  -8.853841e-03  0 
 -1.723687e-04  -8.862663e-03  0 
 -3.945150e-04  -8.146169e-03  0 
 -1.540661e-03  -1.000411e-02  0 
 4.860848e-04  -9.393698e-03  0 
 -1.409191e-04  -7.357221e-03  0 
 -8.395791e-04  -1.054960e-02  0 
 -3.229345e-04  -1.054171e-02  0 
 -3.671730e-04  -9.799199e-03  0 
 -7.430303e-04  -9.836842e-03  0 
 5.149333e-04  -8.139872e-03  0 
 1.358602e-04  -1.043564e-02  0 
 -1.320049e-03  -1.050381e-02  0 
 -1.056466e-03  -7.402742e-03  0 
 -1.566095e-03  -9.477587e-03  0 
 4.339668e-04  -8.864966e-03  0 
 -5.836347e-04  -7.352920e-03  0 
 3.561744e-04  -9.884279e-03  0 
 -1.673780e-03  -1.044622e-02  0 
 5.449077e-04  -7.507510e-03  0 
 -1.440261e-03  -7.529235e-03  0 
 5.628504e-04  -1.019657e-02  0 
VECTORS displacement_ITER12 FLOAT
 -1.686024e-03  -7.141016e-03  0 
 7.224525e-04  -7.050787e-03  0 
 -2.039424e-03  -1.073546e-02  0 
 8.451217e-04  -1.063022e-02  0 
 -1.175774e-03  -6.677952e-03  0 
 -7.224418e-04  -6.431212e-03  0 
 -3.416464e-04  -6.350913e-03  0 
 2.321677e-05  -6.384344e-03  0 
 3.754140e-04  -6.565221e-03  0 
 -1.698595e-03  -7.968325e-03  0 
 -1.773873e-03  -8.594947e-03  0 
 -1.836759e-03  -9.170784e-03  0 
 -1.872726e-03  -9.678894e-03  0 
 -1.906644e-03  -1.017691e-02  0 
 7.040320e-04  -7.936620e-03  0 
 7.297611e-04  -8.535391e-03  0 
 7.364414e-04  -9.063163e-03  0 
 7.510674e-04  -9.558364e-03  0 
 7.650480e-04  -1.005509e-02  0 
 -1.597022e-03  -1.086488e-02  0 
 -1.098165e-03  -1.088955e-02  0 
 -5.824740e-04  -1.090499e-02  0 
 -7.832327e-05  -1.089659e-02  0 
 4.154683e-04  -1.084053e-02  0 
 -4.998943e-04  -9.386751e-03  0 
 -9.013911e-04  -8.128925e-03  0 
 -1.087372e-03  -1.012509e-02  0 
 9.570901e-05  -8.174479e-03  0 
 -7.271525e-05  -1.004624e-02  0 
 -1.448690e-03  -8.106498e-03  0 
 2.647124e-04  -7.413019e-03  0 
 -1.119618e-03  -9.500506e-03  0 
 4.934119e-05  -9.516183e-03  0 
 -1.410552e-03  -8.853250e-03  0 
 -5.543043e-04  -1.021693e-02  0 
 -7.563295e-04  -8.826201e-03  0 
 -1.683315e-04  -8.835906e-03  0 
 -3.959883e-04  -8.101739e-03  0 
 -1.557508e-03  -9.997290e-03  0 
 4.991497e-04  -9.394719e-03  0 
 -1.404534e-04  -7.294187e-03  0 
 -8.284004e-04  -1.056415e-02  0 
 -3.089832e-04  -1.055336e-02  0 
 -3.588323e-04  -9.793180e-03  0 
 -7.429916e-04  -9.828560e-03  0 
 5.392516e-04  -8.078140e-03  0 
 1.641632e-04  -1.044596e-02  0 
 -1.326373e-03  -1.050579e-02  0 
 -1.069072e-03  -7.366641e-03  0 
 -1.587141e-03  -9.462049e-03  0 
 4.454016e-04  -8.833776e-03  0 
 -5.814533e-04  -7.299025e-03  0 
 3.725238e-04  -9.900882e-03  0 
 -1.691841e-03  -1.044414e-02  0 
 5.673077e-04  -7.456232e-03  0 
 -1.455357e-03  -7.511885e-03  0 
 5.752992e-04  -1.021589e-02  0 
VECTORS displacement_ITER13 FLOAT
 -1.709762e-03  -7.106543e-03  0 
 7.415885e-04  -7.036222e-03  0 
 -2.025407e-03  -1.073119e-02  0 
 8.515207e-04  -1.066821e-02  0 
 -1.164970e-03  -6.686414e-03  0 
 -7.318117e-04  -6.472805e-03  0 
 -3.573607e-04  -6.401862e-03  0 
 3.213813e-06  -6.431036e-03  0 
 3.724120e-04  -6.605525e-03  0 
 -1.695455e-03  -7.984368e-03  0 
 -1.758535e-03  -8.609933e-03  0 
 -1.821094e-03  -9.177360e-03  0 
 -1.856691e-03  -9.669424e-03  0 
 -1.901308e-03  -1.016025e-02  0 
 6.967374e-04  -7.968622e-03  0 
 7.036046e-04  -8.563485e-03  0 
 7.058197e-04  -9.071297e-03  0 
 7.181169e-04  -9.564415e-03  0 
 7.567463e-04  -1.005592e-02  0 
 -1.586745e-03  -1.084546e-02  0 
 -1.094476e-03  -1.087138e-02  0 
 -5.921580e-04  -1.088006e-02  0 
 -9.108572e-05  -1.086816e-02  0 
 4.053922e-04  -1.082690e-02  0 
 -5.020616e-04  -9.393343e-03  0 
 -8.981700e-04  -8.147069e-03  0 
 -1.082727e-03  -1.011828e-02  0 
 8.154493e-05  -8.207613e-03  0 
 -8.373657e-05  -1.003937e-02  0 
 -1.437907e-03  -8.126497e-03  0 
 2.489493e-04  -7.457224e-03  0 
 -1.115721e-03  -9.502862e-03  0 
 3.741560e-05  -9.522691e-03  0 
 -1.402226e-03  -8.864262e-03  0 
 -5.569170e-04  -1.020893e-02  0 
 -7.560486e-04  -8.837865e-03  0 
 -1.770582e-04  -8.854783e-03  0 
 -4.049215e-04  -8.127352e-03  0 
 -1.547122e-03  -9.986505e-03  0 
 4.746326e-04  -9.402577e-03  0 
 -1.573897e-04  -7.333739e-03  0 
 -8.285377e-04  -1.055125e-02  0 
 -3.182857e-04  -1.053456e-02  0 
 -3.634995e-04  -9.793209e-03  0 
 -7.425649e-04  -9.827870e-03  0 
 5.205831e-04  -8.116573e-03  0 
 1.482033e-04  -1.042830e-02  0 
 -1.318527e-03  -1.049337e-02  0 
 -1.060151e-03  -7.386367e-03  0 
 -1.577052e-03  -9.462214e-03  0 
 4.265988e-04  -8.856633e-03  0 
 -5.894244e-04  -7.333005e-03  0 
 3.523691e-04  -9.895706e-03  0 
 -1.678526e-03  -1.043335e-02  0 
 5.538753e-04  -7.490274e-03  0 
 -1.444545e-03  -7.527323e-03  0 
 5.545115e-04  -1.020657e-02  0 
VECTORS displacement_ITER14 FLOAT
 -1.702908e-03  -7.135056e-03  0 
 7.434732e-04  -7.034725e-03  0 
 -2.019046e-03  -1.072411e-02  0 
 8.354130e-04  -1.066676e-02  0 
 -1.174481e-03  -6.681628e-03  0 
 -7.385525e-04  -6.455543e-03  0 
 -3.450324e-04  -6.373320e-03  0 
 1.176938e-05  -6.412423e-03  0 
 3.667390e-04  -6.586815e-03  0 
 -1.700793e-03  -7.973135e-03  0 
 -1.772628e-03  -8.596597e-03  0 
 -1.835886e-03  -9.175069e-03  0 
 -1.865031e-03  -9.671534e-03  0 
 -1.912042e-03  -1.016323e-02  0 
 6.949919e-04  -7.954829e-03  0 
 7.111489e-04  -8.555097e-03  0 
 7.222068e-04  -9.075265e-03  0 
 7.350089e-04  -9.577946e-03  0 
 7.611145e-04  -1.006248e-02  0 
 -1.586187e-03  -1.085073e-02  0 
 -1.098308e-03  -1.088107e-02  0 
 -5.947768e-04  -1.089145e-02  0 
 -8.694961e-05  -1.087578e-02  0 
 4.062050e-04  -1.082950e-02  0 
 -5.042204e-04  -9.394121e-03  0 
 -9.035077e-04  -8.141312e-03  0 
 -1.086445e-03  -1.012404e-02  0 
 8.586464e-05  -8.193065e-03  0 
 -8.232324e-05  -1.004662e-02  0 
 -1.450011e-03  -8.114179e-03  0 
 2.519972e-04  -7.437692e-03  0 
 -1.120191e-03  -9.504154e-03  0 
 3.743053e-05  -9.525590e-03  0 
 -1.409589e-03  -8.859210e-03  0 
 -5.580135e-04  -1.021432e-02  0 
 -7.593198e-04  -8.835661e-03  0 
 -1.773549e-04  -8.850309e-03  0 
 -4.043172e-04  -8.119924e-03  0 
 -1.553808e-03  -9.990236e-03  0 
 4.823672e-04  -9.407459e-03  0 
 -1.479764e-04  -7.315021e-03  0 
 -8.319244e-04  -1.055990e-02  0 
 -3.167451e-04  -1.054206e-02  0 
 -3.646531e-04  -9.796715e-03  0 
 -7.449740e-04  -9.831165e-03  0 
 5.246536e-04  -8.101227e-03  0 
 1.529095e-04  -1.043893e-02  0 
 -1.322195e-03  -1.050237e-02  0 
 -1.071588e-03  -7.375732e-03  0 
 -1.585357e-03  -9.464072e-03  0 
 4.312224e-04  -8.848134e-03  0 
 -5.901501e-04  -7.321986e-03  0 
 3.568151e-04  -9.908258e-03  0 