# vtk DataFile Version 3.1
this is an vtk file created by FEMAC
ASCII
DATASET UNSTRUCTURED_GRID
POINTS 58 FLOAT
1.000000 5.000000 0.000000
1.000000 6.000000 0.000000
2.000000 5.000000 0.000000
2.000000 6.000000 0.000000
1.000000 5.166667 0.000000
1.000000 5.333333 0.000000
1.000000 5.500000 0.000000
1.000000 5.666667 0.000000
1.000000 5.833333 0.000000
1.166667 5.000000 0.000000
1.333333 5.000000 0.000000
1.500000 5.000000 0.000000
1.666667 5.000000 0.000000
1.833333 5.000000 0.000000
1.166667 6.000000 0.000000
1.333333 6.000000 0.000000
1.500000 6.000000 0.000000
1.666667 6.000000 0.000000
1.833333 6.000000 0.000000
2.000000 5.166667 0.000000
2.000000 5.333333 0.000000
2.000000 5.500000 0.000000
2.000000 5.666667 0.000000
2.000000 5.833333 0.000000
1.504630 5.500000 0.000000
1.704269 5.741187 0.000000
1.680984 5.270977 0.000000
1.105257 5.767940 0.000000
1.105257 5.232060 0.000000
1.741291 5.905541 0.000000
1.756801 5.134312 0.000000
1.331126 5.500000 0.000000
1.693267 5.545326 0.000000
1.534459 5.255393 0.000000
1.539116 5.747040 0.000000
1.428455 5.345931 0.000000
1.429231 5.654475 0.000000
1.585520 5.869851 0.000000
1.585520 5.130149 0.000000
1.603650 5.388055 0.000000
1.575050 5.623277 0.000000
1.880784 5.671883 0.000000
1.855120 5.271332 0.000000
1.219009 5.873523 0.000000
1.219009 5.126477 0.000000
1.250386 5.321487 0.000000
1.250496 5.678571 0.000000
1.408101 5.831923 0.000000
1.407309 5.168491 0.000000
1.176749 5.500010 0.000000
1.106501 5.622637 0.000000
1.106478 5.377378 0.000000
1.868212 5.455430 0.000000
1.740247 5.386224 0.000000
1.098187 5.894959 0.000000
1.098187 5.105041 0.000000
1.859946 5.858657 0.000000
1.889051 5.114462 0.000000
CELLS 90 360 
3 13 30 12
3 29 18 17
3 27  8  7
3 4 28  5
3 35 24 31
3 24 36 31
3 17 37 29
3 37 25 29
3 38 12 30
3 26 38 30
3 24 39 32
3 26 39 33
3 40 24 32
3 40 25 34
3 25 40 32
3 41 22 23
3 20 42 19
3 43 15 14
3 10 44  9
3 45 28 44
3 27 46 43
3 47 15 43
3 10 48 44
3 35 39 24
3 35 33 39
3 40 36 24
3 34 36 40
3 38 11 12
3 26 33 38
3 16 37 17
3 34 25 37
3 11 48 10
3 48 11 38
3 38 33 48
3 47 16 15
3 16 47 37
3 34 37 47
3 42 26 30
3 41 21 22
3 41 25 32
3 31 45 35
3 46 31 36
3 49 31 46
3 31 49 45
3 6 50  7
3 46 50 49
3 50  6 49
3 51  6  5
3 51 45 49
3 6 51 49
3 52 21 41
3 32 52 41
3 53 42 52
3 42 53 26
3 32 53 52
3 8 54  1
3 54 14  1
3 54  8 27
3 55  4  0
3 9 55  0
3 4 55 28
3 18 56  3
3 56 23  3
3 57 13  2
3 19 57  2
3 53 39 26
3 32 39 53
3 52 20 21
3 42 20 52
3 28 51  5
3 28 45 51
3 50 27  7
3 46 27 50
3 54 43 14
3 27 43 54
3 44 55  9
3 44 28 55
3 57 19 42
3 30 57 42
3 57 30 13
3 23 56 41
3 29 56 18
3 25 56 29
3 25 41 56
3 35 48 33
3 35 45 48
3 44 48 45
3 47 36 34
3 46 36 47
3 47 43 46
CELL_TYPES 90
5 5 5 5 5 5 5 5 5 5 5 5 5 5 5 5 5 5 5 5 5 5 5 5 5 5 5 5 5 5 5 5 5 5 5 5 5 5 5 5 5 5 5 5 5 5 5 5 5 5 5 5 5 5 5 5 5 5 5 5 5 5 5 5 5 5 5 5 5 5 5 5 5 5 5 5 5 5 5 5 5 5 5 5 5 5 5 5 5 5 
POINT_DATA 58
VECTORS displacement_ITER1 FLOAT
 4.404349e-03  -6.003519e-03  0 
 1.118652e-02  -6.845778e-03  0 
 5.847764e-03  -1.242985e-02  0 
 1.123602e-02  -1.292102e-02  0 
 5.940419e-03  -6.389848e-03  0 
 7.098027e-03  -6.645779e-03  0 
 8.150999e-03  -6.787952e-03  0 
 9.155615e-03  -6.874838e-03  0 
 1.014218e-02  -6.895852e-03  0 
 4.737092e-03  -7.484326e-03  0 
 4.976755e-03  -8.706663e-03  0 
 5.156789e-03  -9.777750e-03  0 
 5.351057e-03  -1.077979e-02  0 
 5.563866e-03  -1.167166e-02  0 
 1.116847e-02  -7.897345e-03  0 
 1.117539e-02  -8.892887e-03  0 
 1.119084e-02  -9.881896e-03  0 
 1.120707e-02  -1.088537e-02  0 
 1.122278e-02  -1.189942e-02  0 
 6.390369e-03  -1.258598e-02  0 
 7.239890e-03  -1.273450e-02  0 
 8.200768e-03  -1.282926e-02  0 
 9.206073e-03  -1.287953e-02  0 
 1.021485e-02  -1.291016e-02  0 
 8.200913e-03  -9.913546e-03  0 
 9.640179e-03  -1.109794e-02  0 
 6.852731e-03  -1.099928e-02  0 
 9.769102e-03  -7.510397e-03  0 
 6.470722e-03  -7.267519e-03  0 
 1.064032e-02  -1.133112e-02  0 
 6.147840e-03  -1.140011e-02  0 
 8.206290e-03  -8.845799e-03  0 
 8.451846e-03  -1.103469e-02  0 
 6.729261e-03  -1.012945e-02  0 
 9.675314e-03  -1.010046e-02  0 
 7.275487e-03  -9.460608e-03  0 
 9.123029e-03  -9.440679e-03  0 
 1.041600e-02  -1.038446e-02  0 
 6.022091e-03  -1.040604e-02  0 
 7.527471e-03  -1.053271e-02  0 
 8.928315e-03  -1.031943e-02  0 
 9.221663e-03  -1.216150e-02  0 
 6.872019e-03  -1.195042e-02  0 
 1.040754e-02  -8.200754e-03  0 
 5.764382e-03  -8.029898e-03  0 
 7.108139e-03  -8.315404e-03  0 
 9.262505e-03  -8.362725e-03  0 
 1.017933e-02  -9.318304e-03  0 
 6.149103e-03  -9.320916e-03  0 
 8.193986e-03  -7.881576e-03  0 
 8.915111e-03  -7.489948e-03  0 
 7.423601e-03  -7.381400e-03  0 
 7.916307e-03  -1.205355e-02  0 
 7.512166e-03  -1.132346e-02  0 
 1.052191e-02  -7.481894e-03  0 
 5.509169e-03  -7.107075e-03  0 
 1.036146e-02  -1.205045e-02  0 
 6.135271e-03  -1.208027e-02  0 
VECTORS displacement_ITER2 FLOAT
 2.880428e-03  -4.013909e-03  0 
 8.523689e-03  -5.021809e-03  0 
 4.504841e-03  -9.240829e-03  0 
 8.586474e-03  -9.804310e-03  0 
 4.328455e-03  -4.490723e-03  0 
 5.301287e-03  -4.769358e-03  0 
 6.155847e-03  -4.909490e-03  0 
 6.951793e-03  -4.991907e-03  0 
 7.722991e-03  -5.028398e-03  0 
 3.284085e-03  -5.419565e-03  0 
 3.551691e-03  -6.463620e-03  0 
 3.733788e-03  -7.318594e-03  0 
 3.936740e-03  -8.102812e-03  0 
 4.171491e-03  -8.778846e-03  0 
 8.526293e-03  -5.818929e-03  0 
 8.541709e-03  -6.597248e-03  0 
 8.556764e-03  -7.381220e-03  0 
 8.569325e-03  -8.180310e-03  0 
 8.579284e-03  -8.989224e-03  0 
 4.766968e-03  -9.469209e-03  0 
 5.413876e-03  -9.645805e-03  0 
 6.166406e-03  -9.741414e-03  0 
 6.970288e-03  -9.777139e-03  0 
 7.773180e-03  -9.795989e-03  0 
 6.182130e-03  -7.426599e-03  0 
 7.321504e-03  -8.357016e-03  0 
 5.100431e-03  -8.309553e-03  0 
 7.436553e-03  -5.502981e-03  0 
 4.789904e-03  -5.268296e-03  0 
 8.116909e-03  -8.537790e-03  0 
 4.566012e-03  -8.616994e-03  0 
 6.195891e-03  -6.568979e-03  0 
 6.371914e-03  -8.315265e-03  0 
 4.998646e-03  -7.623312e-03  0 
 7.354205e-03  -7.559507e-03  0 
 5.444033e-03  -7.076636e-03  0 
 6.920113e-03  -7.037329e-03  0 
 7.941872e-03  -7.782763e-03  0 
 4.442555e-03  -7.839099e-03  0 
 5.637195e-03  -7.932282e-03  0 
 6.757425e-03  -7.740627e-03  0 
 6.984001e-03  -9.206600e-03  0 
 5.114736e-03  -9.036132e-03  0 
 7.937384e-03  -6.049240e-03  0 
 4.193057e-03  -5.916237e-03  0 
 5.315359e-03  -6.145890e-03  0 
 7.037536e-03  -6.176286e-03  0 
 7.757110e-03  -6.933246e-03  0 
 4.523311e-03  -6.976982e-03  0 
 6.190716e-03  -5.790156e-03  0 
 6.763325e-03  -5.479716e-03  0 
 5.570839e-03  -5.378397e-03  0 
 5.939198e-03  -9.126964e-03  0 
 5.618554e-03  -8.553485e-03  0 
 8.023275e-03  -5.490110e-03  0 
 3.957538e-03  -5.115540e-03  0 
 7.892175e-03  -9.112457e-03  0 
 4.580029e-03  -9.118989e-03  0 
VECTORS displacement_ITER3 FLOAT
 2.224112e-03  -2.935494e-03  0 
 7.363197e-03  -4.056221e-03  0 
 3.951323e-03  -7.654691e-03  0 
 7.471039e-03  -8.265971e-03  0 
 3.635376e-03  -3.447445e-03  0 
 4.533370e-03  -3.737993e-03  0 
 5.297679e-03  -3.886229e-03  0 
 6.009676e-03  -3.965819e-03  0 
 6.701852e-03  -4.019916e-03  0 
 2.658298e-03  -4.300372e-03  0 
 2.939991e-03  -5.265483e-03  0 
 3.131029e-03  -6.035922e-03  0 
 3.343634e-03  -6.735499e-03  0 
 3.590459e-03  -7.311470e-03  0 
 7.393440e-03  -4.714774e-03  0 
 7.418536e-03  -5.396252e-03  0 
 7.435818e-03  -6.093808e-03  0 
 7.450663e-03  -6.807736e-03  0 
 7.462569e-03  -7.533032e-03  0 
 4.088753e-03  -7.912410e-03  0 
 4.640943e-03  -8.103406e-03  0 
 5.304274e-03  -8.198056e-03  0 
 6.018806e-03  -8.233971e-03  0 
 6.739799e-03  -8.256850e-03  0 
 5.324575e-03  -6.144253e-03  0 
 6.334862e-03  -6.965387e-03  0 
 4.359814e-03  -6.938364e-03  0 
 6.448261e-03  -4.431958e-03  0 
 4.069441e-03  -4.184070e-03  0 
 7.046907e-03  -7.126969e-03  0 
 3.900709e-03  -7.204176e-03  0 
 5.340748e-03  -5.375980e-03  0 
 5.487731e-03  -6.934152e-03  0 
 4.265898e-03  -6.330221e-03  0 
 6.366813e-03  -6.253435e-03  0 
 4.666598e-03  -5.835961e-03  0 
 5.984021e-03  -5.791349e-03  0 
 6.889960e-03  -6.450791e-03  0 
 3.776591e-03  -6.518355e-03  0 
 4.835957e-03  -6.600843e-03  0 
 5.834746e-03  -6.418940e-03  0 
 6.030409e-03  -7.725544e-03  0 
 4.373228e-03  -7.570109e-03  0 
 6.886466e-03  -4.910485e-03  0 
 3.518850e-03  -4.780035e-03  0 
 4.551512e-03  -4.993709e-03  0 
 6.091905e-03  -5.025799e-03  0 
 6.726038e-03  -5.694152e-03  0 
 3.832850e-03  -5.748676e-03  0 
 5.335645e-03  -4.673944e-03  0 
 5.843740e-03  -4.402785e-03  0 
 4.779989e-03  -4.295396e-03  0 
 5.101375e-03  -7.654593e-03  0 
 4.817078e-03  -7.149109e-03  0 
 6.960867e-03  -4.422609e-03  0 
 3.289275e-03  -4.032034e-03  0 
 6.845964e-03  -7.641988e-03  0 
 3.930973e-03  -7.629124e-03  0 
VECTORS displacement_ITER4 FLOAT
 1.889250e-03  -2.446952e-03  0 
 6.847275e-03  -3.618305e-03  0 
 3.688358e-03  -6.966822e-03  0 
 6.972915e-03  -7.606328e-03  0 
 3.298772e-03  -2.975033e-03  0 
 4.168136e-03  -3.271974e-03  0 
 4.900464e-03  -3.425343e-03  0 
 5.580083e-03  -3.506281e-03  0 
 6.237773e-03  -3.565805e-03  0 
 2.344238e-03  -3.799981e-03  0 
 2.633910e-03  -4.733784e-03  0 
 2.833221e-03  -5.473103e-03  0 
 3.054032e-03  -6.140335e-03  0 
 3.309759e-03  -6.671376e-03  0 
 6.886941e-03  -4.223687e-03  0 
 6.915633e-03  -4.866663e-03  0 
 6.933757e-03  -5.529796e-03  0 
 6.949372e-03  -6.209973e-03  0 
 6.962868e-03  -6.903435e-03  0 
 3.765649e-03  -7.238212e-03  0 
 4.275945e-03  -7.435444e-03  0 
 4.903474e-03  -7.532200e-03  0 
 5.583451e-03  -7.570903e-03  0 
 6.270123e-03  -7.595372e-03  0 
 4.926192e-03  -5.584215e-03  0 
 5.885096e-03  -6.361249e-03  0 
 4.008401e-03  -6.343603e-03  0 
 5.998401e-03  -3.953052e-03  0 
 3.722514e-03  -3.698283e-03  0 
 6.564324e-03  -6.514310e-03  0 
 3.581681e-03  -6.591551e-03  0 
 4.943972e-03  -4.850857e-03  0 
 5.077813e-03  -6.334385e-03  0 
 3.917009e-03  -5.767106e-03  0 
 5.917164e-03  -5.682571e-03  0 
 4.299971e-03  -5.293047e-03  0 
 5.554836e-03  -5.244507e-03  0 
 6.414994e-03  -5.869401e-03  0 
 3.455522e-03  -5.943484e-03  0 
 4.459744e-03  -6.022026e-03  0 
 5.410170e-03  -5.842419e-03  0 
 5.593409e-03  -7.086589e-03  0 
 4.021971e-03  -6.935842e-03  0 
 6.412088e-03  -4.405586e-03  0 
 3.188159e-03  -4.275113e-03  0 
 4.189824e-03  -4.484632e-03  0 
 5.659622e-03  -4.515935e-03  0 
 6.259592e-03  -5.149342e-03  0 
 3.499402e-03  -5.210299e-03  0 
 4.939424e-03  -4.178524e-03  0 
 5.422861e-03  -3.922299e-03  0 
 4.407520e-03  -3.811807e-03  0 
 4.709709e-03  -7.017486e-03  0 
 4.440646e-03  -6.540517e-03  0 
 6.481591e-03  -3.946113e-03  0 
 2.959355e-03  -3.547782e-03  0 
 6.371998e-03  -7.006419e-03  0 
 3.621300e-03  -6.984092e-03  0 
VECTORS displacement_ITER5 FLOAT
 1.720140e-03  -2.265311e-03  0 
 6.593138e-03  -3.449334e-03  0 
 3.559736e-03  -6.673175e-03  0 
 6.716575e-03  -7.329283e-03  0 
 3.132973e-03  -2.801117e-03  0 
 3.986299e-03  -3.102711e-03  0 
 4.703990e-03  -3.256665e-03  0 
 5.363965e-03  -3.339282e-03  0 
 5.998936e-03  -3.397305e-03  0 
 2.188360e-03  -3.614339e-03  0 
 2.483667e-03  -4.532330e-03  0 
 2.686633e-03  -5.253774e-03  0 
 2.911239e-03  -5.901656e-03  0 
 3.171877e-03  -6.408466e-03  0 
 6.631034e-03  -4.037119e-03  0 
 6.659412e-03  -4.660869e-03  0 
 6.677330e-03  -5.304976e-03  0 
 6.692608e-03  -5.966728e-03  0 
 6.706283e-03  -6.642721e-03  0 
 3.603796e-03  -6.954932e-03  0 
 4.092133e-03  -7.154194e-03  0 
 4.699326e-03  -7.253211e-03  0 
 5.362326e-03  -7.292267e-03  0 
 6.030040e-03  -7.316859e-03  0 
 4.725010e-03  -5.362541e-03  0 
 5.656180e-03  -6.115280e-03  0 
 3.831864e-03  -6.104211e-03  0 
 5.768424e-03  -3.772444e-03  0 
 3.551040e-03  -3.518643e-03  0 
 6.317462e-03  -6.263245e-03  0 
 3.422536e-03  -6.342631e-03  0 
 4.744353e-03  -4.648011e-03  0 
 4.870040e-03  -6.090747e-03  0 
 3.742173e-03  -5.545416e-03  0 
 5.688523e-03  -5.454508e-03  0 
 4.116112e-03  -5.081825e-03  0 
 5.337059e-03  -5.029209e-03  0 
 6.172744e-03  -5.635544e-03  0 
 3.295558e-03  -5.715891e-03  0 
 4.270019e-03  -5.790781e-03  0 
 5.194667e-03  -5.611393e-03  0 
 5.371479e-03  -6.821190e-03  0 
 3.845489e-03  -6.673954e-03  0 
 6.170276e-03  -4.212942e-03  0 
 3.024319e-03  -4.087197e-03  0 
 4.009636e-03  -4.292290e-03  0 
 5.440410e-03  -4.319538e-03  0 
 6.022295e-03  -4.935153e-03  0 
 3.333346e-03  -5.003272e-03  0 
 4.741253e-03  -3.992212e-03  0 
 5.211637e-03  -3.742408e-03  0 
 4.221961e-03  -3.633091e-03  0 
 4.510764e-03  -6.754117e-03  0 
 4.250301e-03  -6.293048e-03  0 
 6.237035e-03  -3.767564e-03  0 
 2.795689e-03  -3.370142e-03  0 
 6.129529e-03  -6.742825e-03  0 
 3.466440e-03  -6.716758e-03  0 
VECTORS displacement_ITER6 FLOAT
 1.655887e-03  -2.236994e-03  0 
 6.452838e-03  -3.417447e-03  0 
 3.530723e-03  -6.537234e-03  0 
 6.564888e-03  -7.204975e-03  0 
 3.064145e-03  -2.774592e-03  0 
 3.903118e-03  -3.079268e-03  0 
 4.606128e-03  -3.234340e-03  0 
 5.249711e-03  -3.317956e-03  0 
 5.869043e-03  -3.372494e-03  0 
 2.131619e-03  -3.573136e-03  0 
 2.432096e-03  -4.477962e-03  0 
 2.638304e-03  -5.183639e-03  0 
 2.866560e-03  -5.814031e-03  0 
 3.132578e-03  -6.300524e-03  0 
 6.486620e-03  -3.996172e-03  0 
 6.512614e-03  -4.605325e-03  0 
 6.529291e-03  -5.233006e-03  0 
 6.543449e-03  -5.878221e-03  0 
 6.555754e-03  -6.536826e-03  0 
 3.542090e-03  -6.828132e-03  0 
 4.009316e-03  -7.030255e-03  0 
 4.598760e-03  -7.131539e-03  0 
 5.245490e-03  -7.170603e-03  0 
 5.896695e-03  -7.194628e-03  0 
 4.625953e-03  -5.292536e-03  0 
 5.532646e-03  -6.023836e-03  0 
 3.756138e-03  -6.017571e-03  0 
 5.643786e-03  -3.739351e-03  0 
 3.477350e-03  -3.485821e-03  0 
 6.177500e-03  -6.167659e-03  0 
 3.363367e-03  -6.247403e-03  0 
 4.645859e-03  -4.594949e-03  0 
 4.765560e-03  -6.000994e-03  0 
 3.667619e-03  -5.474049e-03  0 
 5.564917e-03  -5.379745e-03  0 
 4.032573e-03  -5.020338e-03  0 
 5.222832e-03  -4.965693e-03  0 
 6.036905e-03  -5.555766e-03  0 
 3.234902e-03  -5.638839e-03  0 
 4.181892e-03  -5.711630e-03  0 
 5.082963e-03  -5.533400e-03  0 
 5.254315e-03  -6.711759e-03  0 
 3.769711e-03  -6.567387e-03  0 
 6.035601e-03  -4.168932e-03  0 
 2.959286e-03  -4.045242e-03  0 
 3.928488e-03  -4.247674e-03  0 
 5.324367e-03  -4.273120e-03  0 
 5.890943e-03  -4.873104e-03  0 
 3.266655e-03  -4.944382e-03  0 
 4.643190e-03  -3.953715e-03  0 
 5.101731e-03  -3.710168e-03  0 
 4.135381e-03  -3.600961e-03  0 
 4.414632e-03  -6.646107e-03  0 
 4.161910e-03  -6.199319e-03  0 
 6.101239e-03  -3.733597e-03  0 
 2.730097e-03  -3.337917e-03  0 
 5.994042e-03  -6.635084e-03  0 
 3.411615e-03  -6.605330e-03  0 
VECTORS displacement_ITER7 FLOAT
 1.648904e-03  -2.242215e-03  0 
 6.394798e-03  -3.413010e-03  0 
 3.543118e-03  -6.465985e-03  0 
 6.497380e-03  -7.142058e-03  0 
 3.050288e-03  -2.777947e-03  0 
 3.880846e-03  -3.083348e-03  0 
 4.573574e-03  -3.238483e-03  0 
 5.205959e-03  -3.321760e-03  0 
 5.816683e-03  -3.373778e-03  0 
 2.126920e-03  -3.566359e-03  0 
 2.430522e-03  -4.461984e-03  0 
 2.638099e-03  -5.155923e-03  0 
 2.868222e-03  -5.773877e-03  0 
 3.138287e-03  -6.247531e-03  0 
 6.425412e-03  -3.987421e-03  0 
 6.449453e-03  -4.587987e-03  0 
 6.465146e-03  -5.205431e-03  0 
 6.478322e-03  -5.840024e-03  0 
 6.489313e-03  -6.486964e-03  0 
 3.533186e-03  -6.762409e-03  0 
 3.987231e-03  -6.968597e-03  0 
 4.566175e-03  -7.071828e-03  0 
 5.201532e-03  -7.111161e-03  0 
 5.841774e-03  -7.134023e-03  0 
 4.592592e-03  -5.265497e-03  0 
 5.484280e-03  -5.983737e-03  0 
 3.737921e-03  -5.979056e-03  0 
 5.594131e-03  -3.736011e-03  0 
 3.460501e-03  -3.484390e-03  0 
 6.118355e-03  -6.124907e-03  0 
 3.356010e-03  -6.203037e-03  0 
 4.612624e-03  -4.578853e-03  0 
 4.729202e-03  -5.961507e-03  0 
 3.649960e-03  -5.445499e-03  0 
 5.516221e-03  -5.350301e-03  0 
 4.008995e-03  -4.998577e-03  0 
 5.179817e-03  -4.943155e-03  0 
 5.980441e-03  -5.523303e-03  0 
 3.226297e-03  -5.606168e-03  0 
 4.155645e-03  -5.678325e-03  0 
 5.041815e-03  -5.501607e-03  0 
 5.210225e-03  -6.660227e-03  0 
 3.751445e-03  -6.515907e-03  0 
 5.979876e-03  -4.158762e-03  0 
 2.948435e-03  -4.037397e-03  0 
 3.906442e-03  -4.237395e-03  0 
 5.279976e-03  -4.261426e-03  0 
 5.837253e-03  -4.851811e-03  0 
 3.254160e-03  -4.924291e-03  0 
 4.610234e-03  -3.946907e-03  0 
 5.060926e-03  -3.707245e-03  0 
 4.110300e-03  -3.598908e-03  0 
 4.384264e-03  -6.594589e-03  0 
 4.135811e-03  -6.156441e-03  0 
 6.045093e-03  -3.729191e-03  0 
 2.718959e-03  -3.336802e-03  0 
 5.937891e-03  -6.584260e-03  0 
 3.407270e-03  -6.550116e-03  0 
VECTORS displacement_ITER8 FLOAT
 1.670940e-03  -2.246550e-03  0 
 6.367672e-03  -3.408727e-03  0 
 3.571416e-03  -6.405601e-03  0 
 6.465350e-03  -7.087025e-03  0 
 3.063151e-03  -2.779061e-03  0 
 3.886064e-03  -3.083738e-03  0 
 4.569946e-03  -3.237967e-03  0 
 5.193374e-03  -3.320528e-03  0 
 5.795575e-03  -3.371510e-03  0 
 2.148790e-03  -3.558596e-03  0 
 2.453072e-03  -4.445113e-03  0 
 2.660688e-03  -5.128916e-03  0 
 2.891591e-03  -5.736782e-03  0 
 3.163759e-03  -6.200213e-03  0 
 6.396767e-03  -3.977035e-03  0 
 6.419988e-03  -4.569706e-03  0 
 6.435188e-03  -5.178640e-03  0 
 6.447785e-03  -5.804459e-03  0 
 6.457979e-03  -6.441988e-03  0 
 3.547985e-03  -6.705451e-03  0 
 3.992408e-03  -6.914864e-03  0 
 4.562453e-03  -7.019007e-03  0 
 5.188781e-03  -7.057775e-03  0 
 5.820020e-03  -7.079753e-03  0 
 4.588234e-03  -5.238706e-03  0 
 5.467653e-03  -5.946508e-03  0 
 3.745723e-03  -5.942610e-03  0 
 5.576143e-03  -3.729096e-03  0 
 3.470212e-03  -3.480079e-03  0 
 6.092789e-03  -6.085530e-03  0 
 3.371981e-03  -6.161907e-03  0 
 4.608266e-03  -4.561256e-03  0 
 4.722703e-03  -5.924633e-03  0 
 3.658403e-03  -5.417172e-03  0 
 5.499229e-03  -5.321810e-03  0 
 4.012594e-03  -4.976029e-03  0 
 5.167489e-03  -4.920300e-03  0 
 5.957013e-03  -5.492362e-03  0 
 3.241819e-03  -5.574666e-03  0 
 4.157100e-03  -5.646191e-03  0 
 5.031166e-03  -5.471141e-03  0 
 5.197402e-03  -6.613399e-03  0 
 3.759277e-03  -6.469395e-03  0 
 5.956766e-03  -4.146373e-03  0 
 2.963519e-03  -4.027101e-03  0 
 3.911356e-03  -4.224723e-03  0 
 5.266462e-03  -4.247557e-03  0 
 5.816015e-03  -4.830040e-03  0 
 3.267106e-03  -4.903066e-03  0 
 4.606129e-03  -3.937258e-03  0 
 5.050508e-03  -3.700721e-03  0 
 4.112797e-03  -3.593527e-03  0 
 4.382621e-03  -6.548350e-03  0 
 4.137440e-03  -6.116762e-03  0 
 6.021168e-03  -3.722379e-03  0 
 2.734681e-03  -3.333270e-03  0 
 5.914819e-03  -6.538291e-03  0 
 3.425168e-03  -6.500438e-03  0 
VECTORS displacement_ITER9 FLOAT
 1.690396e-03  -2.248362e-03  0 
 6.341186e-03  -3.402597e-03  0 
 3.587919e-03  -6.354297e-03  0 
 6.438809e-03  -7.040249e-03  0 
 3.072328e-03  -2.776966e-03  0 
 3.887316e-03  -3.080070e-03  0 
 4.563957e-03  -3.233221e-03  0 
 5.180818e-03  -3.315062e-03  0 
 5.775201e-03  -3.365895e-03  0 
 2.166919e-03  -3.548113e-03  0 
 2.469802e-03  -4.425943e-03  0 
 2.677139e-03  -5.101978e-03  0 
 2.908115e-03  -5.702505e-03  0 
 3.180117e-03  -6.157590e-03  0 
 6.369772e-03  -3.964466e-03  0 
 6.392891e-03  -4.550054e-03  0 
 6.408044e-03  -5.151985e-03  0 
 6.420754e-03  -5.770869e-03  0 
 6.431210e-03  -6.401582e-03  0 
 3.556851e-03  -6.655614e-03  0 
 3.994166e-03  -6.866147e-03  0 
 4.556292e-03  -6.970537e-03  0 
 5.175793e-03  -7.009449e-03  0 
 5.800435e-03  -7.032054e-03  0 
 4.582007e-03  -5.211798e-03  0 
 5.451266e-03  -5.911052e-03  0 
 3.749617e-03  -5.907529e-03  0 
 5.558802e-03  -3.718978e-03  0 
 3.475837e-03  -3.472057e-03  0 
 6.069720e-03  -6.048730e-03  0 
 3.382001e-03  -6.123151e-03  0 
 4.601993e-03  -4.542127e-03  0 
 4.714707e-03  -5.889462e-03  0 
 3.663058e-03  -5.388770e-03  0 
 5.482583e-03  -5.293499e-03  0 
 4.013070e-03  -4.952522e-03  0 
 5.154701e-03  -4.896752e-03  0 
 5.935284e-03  -5.462060e-03  0 
 3.252227e-03  -5.543954e-03  0 
 4.155760e-03  -5.614742e-03  0 
 5.019751e-03  -5.441244e-03  0 
 5.184081e-03  -6.570142e-03  0 
 3.763292e-03  -6.426489e-03  0 
 5.934985e-03  -4.131594e-03  0 
 2.974228e-03  -4.013346e-03  0 
 3.912827e-03  -4.209452e-03  0 
 5.252736e-03  -4.231634e-03  0 
 5.795867e-03  -4.807304e-03  0 
 3.275772e-03  -4.880390e-03  0 
 4.599945e-03  -3.925015e-03  0 
 5.039411e-03  -3.691095e-03  0 
 4.111902e-03  -3.584761e-03  0 
 4.378544e-03  -6.505618e-03  0 
 4.136239e-03  -6.079317e-03  0 
 5.998420e-03  -3.712761e-03  0 
 2.746673e-03  -3.326447e-03  0 
 5.893788e-03  -6.496523e-03  0 
 3.436123e-03  -6.455381e-03  0 
VECTORS displacement_ITER10 FLOAT
 1.688339e-03  -2.244803e-03  0 
 6.336230e-03  -3.398388e-03  0 
 3.584124e-03  -6.348690e-03  0 
 6.436564e-03  -7.037025e-03  0 
 3.069144e-03  -2.773053e-03  0 
 3.883435e-03  -3.075665e-03  0 
 4.559716e-03  -3.228793e-03  0 
 5.176668e-03  -3.310390e-03  0 
 5.770982e-03  -3.361521e-03  0 
 2.164590e-03  -3.543535e-03  0 
 2.466863e-03  -4.420260e-03  0 
 2.674368e-03  -5.096238e-03  0 
 2.905226e-03  -5.696875e-03  0 
 3.176662e-03  -6.151429e-03  0 
 6.365136e-03  -3.959712e-03  0 
 6.388484e-03  -4.544999e-03  0 
 6.403860e-03  -5.146848e-03  0 
 6.416976e-03  -5.765778e-03  0 
 6.428200e-03  -6.397105e-03  0 
 3.553465e-03  -6.649284e-03  0 
 3.990530e-03  -6.859462e-03  0 
 4.552570e-03  -6.964109e-03  0 
 5.171979e-03  -7.004432e-03  0 
 5.796606e-03  -7.027949e-03  0 
 4.577940e-03  -5.206431e-03  0 
 5.447078e-03  -5.905640e-03  0 
 3.746127e-03  -5.901566e-03  0 
 5.554640e-03  -3.714287e-03  0 
 3.472223e-03  -3.467416e-03  0 
 6.065883e-03  -6.043519e-03  0 
 3.378714e-03  -6.116985e-03  0 
 4.597921e-03  -4.537058e-03  0 
 4.710525e-03  -5.883895e-03  0 
 3.659602e-03  -5.383149e-03  0 
 5.478371e-03  -5.288103e-03  0 
 4.009318e-03  -4.947195e-03  0 
 5.150513e-03  -4.891509e-03  0 
 5.931191e-03  -5.456694e-03  0 
 3.249124e-03  -5.538187e-03  0 
 4.151952e-03  -5.609112e-03  0 
 5.015555e-03  -5.435797e-03  0 
 5.179880e-03  -6.564885e-03  0 
 3.759853e-03  -6.420257e-03  0 
 5.930644e-03  -4.126624e-03  0 
 2.971006e-03  -4.008171e-03  0 
 3.909054e-03  -4.204458e-03  0 
 5.248543e-03  -4.226717e-03  0 
 5.791599e-03  -4.802062e-03  0 
 3.272541e-03  -4.874923e-03  0 
 4.595823e-03  -3.920228e-03  0 
 5.035207e-03  -3.686437e-03  0 
 4.107961e-03  -3.580095e-03  0 
 4.374717e-03  -6.499488e-03  0 
 4.132523e-03  -6.073392e-03  0 
 5.993994e-03  -3.708056e-03  0 
 2.743762e-03  -3.322050e-03  0 
 5.889913e-03  -6.491596e-03  0 
 3.432813e-03  -6.449162e-03  0 
VECTORS displacement_ITER11 FLOAT
 1.682607e-03  -2.234279e-03  0 
 6.337655e-03  -3.390291e-03  0 
 3.576847e-03  -6.348573e-03  0 
 6.439530e-03  -7.036116e-03  0 
 3.065177e-03  -2.763628e-03  0 
 3.880752e-03  -3.066107e-03  0 
 4.558286e-03  -3.219432e-03  0 
 5.176339e-03  -3.301066e-03  0 
 5.772058e-03  -3.352584e-03  0 
 2.159226e-03  -3.535670e-03  0 
 2.461302e-03  -4.413481e-03  0 
 2.668626e-03  -5.090977e-03  0 
 2.899024e-03  -5.693002e-03  0 
 3.170019e-03  -6.149392e-03  0 
 6.367136e-03  -3.951944e-03  0 
 6.390775e-03  -4.538321e-03  0 
 6.406319e-03  -5.141473e-03  0 
 6.419579e-03  -5.761745e-03  0 
 6.430994e-03  -6.394572e-03  0 
 3.548677e-03  -6.648855e-03  0 
 3.987450e-03  -6.858346e-03  0 
 4.551045e-03  -6.962892e-03  0 
 5.171983e-03  -7.003211e-03  0 
 5.797804e-03  -7.026901e-03  0 
 4.576464e-03  -5.200944e-03  0 
 5.447569e-03  -5.901874e-03  0 
 3.742643e-03  -5.897570e-03  0 
 5.555248e-03  -3.705934e-03  0 
 3.468698e-03  -3.458730e-03  0 
 6.067724e-03  -6.040065e-03  0 
 3.373778e-03  -6.113778e-03  0 
 4.596464e-03  -4.530156e-03  0 
 4.709407e-03  -5.879996e-03  0 
 3.656036e-03  -5.377872e-03  0 
 5.478878e-03  -5.282923e-03  0 
 4.006570e-03  -4.941055e-03  0 
 5.150288e-03  -4.885431e-03  0 
 5.932695e-03  -5.451927e-03  0 
 3.244347e-03  -5.533393e-03  0 
 4.149531e-03  -5.604442e-03  0 
 5.015074e-03  -5.430907e-03  0 
 5.179847e-03  -6.562647e-03  0 
 3.756341e-03  -6.417932e-03  0 
 5.931994e-03  -4.119034e-03  0 
 2.966592e-03  -4.000434e-03  0 
 3.906183e-03  -4.196899e-03  0 
 5.248493e-03  -4.219285e-03  0 
 5.792722e-03  -4.795849e-03  0 
 3.268326e-03  -4.868654e-03  0 
 4.594374e-03  -3.912104e-03  0 
 5.034633e-03  -3.677875e-03  0 
 4.105602e-03  -3.571418e-03  0 
 4.372812e-03  -6.497120e-03  0 
 4.130070e-03  -6.069935e-03  0 
 5.995431e-03  -3.699733e-03  0 
 2.739385e-03  -3.313362e-03  0 
 5.891357e-03  -6.489193e-03  0 
 3.427427e-03  -6.447388e-03  0 
VECTORS displacement_ITER12 FLOAT
 1.676311e-03  -2.221267e-03  0 
 6.343642e-03  -3.379925e-03  0 
 3.569818e-03  -6.350528e-03  0 
 6.446319e-03  -7.037090e-03  0 
 3.061575e-03  -2.751527e-03  0 
 3.879040e-03  -3.054366e-03  0 
 4.558706e-03  -3.207854e-03  0 
 5.178924e-03  -3.289663e-03  0 
 5.776754e-03  -3.341343e-03  0 
 2.153235e-03  -3.525697e-03  0 
 2.455355e-03  -4.405987e-03  0 
 2.662558e-03  -5.085858e-03  0 
 2.892834e-03  -5.690069e-03  0 
 3.163574e-03  -6.148952e-03  0 
 6.373630e-03  -3.942782e-03  0 
 6.397482e-03  -4.531093e-03  0 
 6.413125e-03  -5.136329e-03  0 
 6.426455e-03  -5.758706e-03  0 
 6.437846e-03  -6.393576e-03  0 
 3.544680e-03  -6.650715e-03  0 
 3.985815e-03  -6.859941e-03  0 
 4.551635e-03  -6.964341e-03  0 
 5.174660e-03  -7.004264e-03  0 
 5.802737e-03  -7.027966e-03  0 
 4.577105e-03  -5.195699e-03  0 
 5.451252e-03  -5.899224e-03  0 
 3.740216e-03  -5.894683e-03  0 
 5.559154e-03  -3.695906e-03  0 
 3.465913e-03  -3.448072e-03  0 
 6.073459e-03  -6.037949e-03  0 
 3.369370e-03  -6.111982e-03  0 
 4.597070e-03  -4.522688e-03  0 
 4.710664e-03  -5.877232e-03  0 
 3.653457e-03  -5.372992e-03  0 
 5.482604e-03  -5.278190e-03  0 
 4.005217e-03  -4.934766e-03  0 
 5.152862e-03  -4.879290e-03  0 
 5.937937e-03  -5.447811e-03  0 
 3.239990e-03  -5.529289e-03  0 
 4.148717e-03  -5.600482e-03  0 
 5.017290e-03  -5.426614e-03  0 
 5.182675e-03  -6.562235e-03  0 
 3.753899e-03  -6.417487e-03  0 
 5.937177e-03  -4.110366e-03  0 
 2.962435e-03  -3.991297e-03  0 
 3.904521e-03  -4.188233e-03  0 
 5.251317e-03  -4.210958e-03  0 
 5.797446e-03  -4.789493e-03  0 
 3.264641e-03  -4.862082e-03  0 
 4.594905e-03  -3.902727e-03  0 
 5.036695e-03  -3.667748e-03  0 
 4.104530e-03  -3.561018e-03  0 
 4.372860e-03  -6.496762e-03  0 
 4.129212e-03  -6.067848e-03  0 
 6.000835e-03  -3.689688e-03  0 
 2.734971e-03  -3.302490e-03  0 
 5.896559e-03  -6.488551e-03  0 
 3.422581e-03  -6.447455e-03  0 
VECTORS displacement_ITER13 FLOAT
 1.671313e-03  -2.212358e-03  0 
 6.347330e-03  -3.372950e-03  0 
 3.564001e-03  -6.352957e-03  0 
 6.450313e-03  -7.037959e-03  0 
 3.058361e-03  -2.743424e-03  0 
 3.877260e-03  -3.046511e-03  0 
 4.558487e-03  -3.200099e-03  0 
 5.180138e-03  -3.282019e-03  0 
 5.779366e-03  -3.333871e-03  0 
 2.148350e-03  -3.519060e-03  0 
 2.450510e-03  -4.401209e-03  0 
 2.657634e-03  -5.082551e-03  0 
 2.887848e-03  -5.688318e-03  0 
 3.158327e-03  -6.149086e-03  0 
 6.377580e-03  -3.936779e-03  0 
 6.401564e-03  -4.526439e-03  0 
 6.417253e-03  -5.133106e-03  0 
 6.430579e-03  -5.756902e-03  0 
 6.441910e-03  -6.393147e-03  0 
 3.541267e-03  -6.652527e-03  0 
 3.984149e-03  -6.861518e-03  0 
 4.551567e-03  -6.965695e-03  0 
 5.175903e-03  -7.005424e-03  0 
 5.805441e-03  -7.028914e-03  0 
 4.576979e-03  -5.192434e-03  0 
 5.453234e-03  -5.897776e-03  0 
 3.737955e-03  -5.893040e-03  0 
 5.561271e-03  -3.689247e-03  0 
 3.463336e-03  -3.440990e-03  0 
 6.076791e-03  -6.036795e-03  0 
 3.365714e-03  -6.111092e-03  0 
 4.596917e-03  -4.517842e-03  0 
 4.710981e-03  -5.875733e-03  0 
 3.651050e-03  -5.369951e-03  0 
 5.484623e-03  -5.275289e-03  0 
 4.003676e-03  -4.930749e-03  0 
 5.154084e-03  -4.875391e-03  0 
 5.940983e-03  -5.445322e-03  0 
 3.236330e-03  -5.526747e-03  0 
 4.147583e-03  -5.598113e-03  0 
 5.018270e-03  -5.424030e-03  0 
 5.184048e-03  -6.562367e-03  0 
 3.751650e-03  -6.417587e-03  0 
 5.940196e-03  -4.104701e-03  0 
 2.958913e-03  -3.985271e-03  0 
 3.902753e-03  -4.182543e-03  0 
 5.252709e-03  -4.205497e-03  0 
 5.800158e-03  -4.785449e-03  0 
 3.261419e-03  -4.857853e-03  0 
 4.594709e-03  -3.896523e-03  0 
 5.037561e-03  -3.660996e-03  0 
 4.103201e-03  -3.554117e-03  0 
 4.372402e-03  -6.496905e-03  0 
 4.128085e-03  -6.066779e-03  0 
 6.003984e-03  -3.683071e-03  0 
 2.731257e-03  -3.295164e-03  0 
 5.899498e-03  -6.488393e-03  0 
 3.418619e-03  -6.448001e-03  0 
VECTORS displacement_ITER14 FLOAT
 1.668957e-03  -2.209433e-03  0 
 6.351864e-03  -3.370745e-03  0 
 3.560248e-03  -6.359286e-03  0 
 6.454853e-03  -7.042650e-03  0 
 3.057038e-03  -2.740929e-03  0 
 3.877183e-03  -3.044020e-03  0 
 4.559567e-03  -3.197631e-03  0 
 5.182373e-03  -3.279612e-03  0 
 5.782767e-03  -3.331614e-03  0 
 2.145819e-03  -3.517780e-03  0 
 2.447905e-03  -4.401251e-03  0 
 2.654863e-03  -5.083768e-03  0 
 2.884893e-03  -5.690971e-03  0 
 3.155076e-03  -6.153343e-03  0 
 6.382164e-03  -3.935697e-03  0 
 6.406196e-03  -4.526511e-03  0 
 6.421901e-03  -5.134352e-03  0 
 6.435204e-03  -5.759305e-03  0 
 6.446494e-03  -6.396700e-03  0 
 3.539589e-03  -6.658178e-03  0 
 3.983914e-03  -6.866818e-03  0 
 4.552598e-03  -6.970714e-03  0 
 5.178197e-03  -7.010333e-03  0 
 5.808852e-03  -7.033598e-03  0 
 4.578113e-03  -5.193671e-03  0 
 5.456094e-03  -5.900505e-03  0 
 3.737328e-03  -5.895657e-03  0 
 5.564258e-03  -3.687657e-03  0 
 3.462515e-03  -3.439224e-03  0 
 6.080750e-03  -6.039737e-03  0 
 3.363893e-03  -6.114410e-03  0 
 4.598032e-03  -4.517774e-03  0 
 4.712463e-03  -5.878405e-03  0 
 3.650323e-03  -5.371383e-03  0 
 5.487519e-03  -5.276813e-03  0 
 4.003653e-03  -4.931373e-03  0 
 5.156322e-03  -4.876096e-03  0 
 5.944727e-03  -5.447183e-03  0 
 3.234571e-03  -5.528607e-03  0 
 4.147886e-03  -5.600100e-03  0 
 5.020301e-03  -5.425815e-03  0 
 5.186419e-03  -6.566379e-03  0 
 3.750998e-03  -6.421707e-03  0 
 5.943931e-03  -4.103938e-03  0 
 2.957350e-03  -3.984327e-03  0 
 3.902554e-03  -4.181818e-03  0 
 5.255093e-03  -4.204903e-03  0 
 5.803633e-03  -4.786029e-03  0 
 3.260047e-03  -4.858294e-03  0 
 4.595803e-03  -3.895319e-03  0 
 5.039513e-03  -3.659334e-03  0 
 4.103417e-03  -3.552375e-03  0 
 4.373177e-03  -6.500973e-03  0 