# vtk DataFile Version 3.1
this is an vtk file created by FEMAC
ASCII
DATASET UNSTRUCTURED_GRID
POINTS 57 FLOAT
5.000000 5.000000 0.000000
5.000000 6.000000 0.000000
6.000000 5.000000 0.000000
6.000000 6.000000 0.000000
5.000000 5.166667 0.000000
5.000000 5.333333 0.000000
5.000000 5.500000 0.000000
5.000000 5.666667 0.000000
5.000000 5.833333 0.000000
5.166667 5.000000 0.000000
5.333333 5.000000 0.000000
5.500000 5.000000 0.000000
5.666667 5.000000 0.000000
5.833333 5.000000 0.000000
5.166667 6.000000 0.000000
5.333333 6.000000 0.000000
5.500000 6.000000 0.000000
5.666667 6.000000 0.000000
5.833333 6.000000 0.000000
6.000000 5.166667 0.000000
6.000000 5.333333 0.000000
6.000000 5.500000 0.000000
6.000000 5.666667 0.000000
6.000000 5.833333 0.000000
5.493333 5.543333 0.000000
5.790293 5.642093 0.000000
5.511643 5.719281 0.000000
5.484667 5.273258 0.000000
5.739618 5.471106 0.000000
5.211483 5.484741 0.000000
5.393986 5.426525 0.000000
5.332905 5.640556 0.000000
5.587855 5.419258 0.000000
5.624933 5.617288 0.000000
5.869572 5.407653 0.000000
5.680991 5.770139 0.000000
5.410030 5.839296 0.000000
5.412714 5.127140 0.000000
5.726262 5.131814 0.000000
5.131106 5.320009 0.000000
5.847847 5.817132 0.000000
5.295800 5.246278 0.000000
5.763610 5.298286 0.000000
5.569696 5.136663 0.000000
5.879896 5.537504 0.000000
5.544917 5.884352 0.000000
5.713645 5.891029 0.000000
5.249479 5.835063 0.000000
5.865429 5.147420 0.000000
5.108803 5.865192 0.000000
5.147044 5.142718 0.000000
5.263418 5.366327 0.000000
5.271112 5.103227 0.000000
5.626418 5.251856 0.000000
5.899722 5.270672 0.000000
5.920295 5.912616 0.000000
5.128953 5.689365 0.000000
CELLS 88 352 
3 31 24 26
3 24 33 26
3 25 33 28
3 30 32 24
3 30 27 32
3 32 33 24
3 32 28 33
3 31 30 24
3 29 30 31
3 4 39  5
3 13 38 12
3 26 36 31
3 11 37 10
3 35 33 25
3 35 26 33
3 21 34 20
3 11 43 37
3 43 27 37
3 21 44 34
3 44 28 34
3 16 45 17
3 46 18 17
3 46 35 40
3 48 13  2
3 19 48  2
3 8 49  1
3 49 14  1
3 50  4  0
3 9 50  0
3 45 46 17
3 45 35 46
3 12 43 11
3 12 38 43
3 44 25 28
3 25 40 35
3 31 36 47
3 30 41 27
3 41 37 27
3 45 26 35
3 26 45 36
3 32 42 28
3 42 34 28
3 29 51 30
3 41 51 39
3 51 41 30
3 51 29 39
3 37 52 10
3 52 37 41
3 27 53 32
3 42 53 38
3 53 42 32
3 34 54 20
3 54 34 42
3 43 53 27
3 43 38 53
3 54 19 20
3 52  9 10
3 22 25 44
3 25 22 40
3 23 40 22
3 44 21 22
3 50  9 52
3 50 39  4
3 41 39 50
3 50 52 41
3 48 19 54
3 48 38 13
3 42 38 48
3 48 54 42
3 46 40 18
3 36 16 15
3 45 16 36
3 55 18 40
3 55 23  3
3 23 55 40
3 18 55  3
3 7 56  8
3 56 49  8
3 47 49 56
3 56 29 31
3 47 56 31
3 56  7  6
3 14 47 15
3 49 47 14
3 36 15 47
3 29  6 39
3 6 29 56
3 5 39  6
CELL_TYPES 88
5 5 5 5 5 5 5 5 5 5 5 5 5 5 5 5 5 5 5 5 5 5 5 5 5 5 5 5 5 5 5 5 5 5 5 5 5 5 5 5 5 5 5 5 5 5 5 5 5 5 5 5 5 5 5 5 5 5 5 5 5 5 5 5 5 5 5 5 5 5 5 5 5 5 5 5 5 5 5 5 5 5 5 5 5 5 5 5 
POINT_DATA 57
VECTORS displacement_ITER1 FLOAT
 1.351192e-02  -2.338228e-02  0 
 1.863889e-02  -2.370091e-02  0 
 1.356345e-02  -2.877640e-02  0 
 1.869942e-02  -2.874061e-02  0 
 1.440460e-02  -2.348918e-02  0 
 1.527668e-02  -2.356592e-02  0 
 1.613721e-02  -2.361836e-02  0 
 1.697638e-02  -2.364925e-02  0 
 1.781776e-02  -2.367478e-02  0 
 1.351328e-02  -2.437613e-02  0 
 1.353540e-02  -2.529468e-02  0 
 1.355085e-02  -2.618119e-02  0 
 1.355602e-02  -2.705109e-02  0 
 1.356034e-02  -2.791617e-02  0 
 1.865851e-02  -2.451943e-02  0 
 1.867404e-02  -2.535400e-02  0 
 1.868607e-02  -2.619560e-02  0 
 1.869463e-02  -2.704164e-02  0 
 1.869835e-02  -2.789130e-02  0 
 1.442303e-02  -2.877511e-02  0 
 1.528458e-02  -2.876804e-02  0 
 1.614407e-02  -2.875679e-02  0 
 1.699960e-02  -2.874628e-02  0 
 1.784950e-02  -2.874201e-02  0 
 1.637689e-02  -2.614248e-02  0 
 1.687689e-02  -2.767211e-02  0 
 1.726897e-02  -2.624212e-02  0 
 1.498800e-02  -2.609910e-02  0 
 1.600261e-02  -2.741579e-02  0 
 1.607426e-02  -2.469066e-02  0 
 1.578199e-02  -2.562534e-02  0 
 1.686747e-02  -2.532582e-02  0 
 1.573995e-02  -2.663281e-02  0 
 1.675247e-02  -2.682114e-02  0 
 1.567174e-02  -2.809042e-02  0 
 1.752905e-02  -2.710967e-02  0 
 1.787149e-02  -2.573016e-02  0 
 1.422058e-02  -2.572520e-02  0 
 1.424458e-02  -2.736135e-02  0 
 1.522932e-02  -2.424761e-02  0 
 1.776793e-02  -2.796409e-02  0 
 1.485532e-02  -2.510320e-02  0 
 1.510925e-02  -2.754858e-02  0 
 1.427011e-02  -2.654684e-02  0 
 1.634021e-02  -2.813610e-02  0 
 1.810422e-02  -2.641774e-02  0 
 1.814222e-02  -2.727858e-02  0 
 1.784199e-02  -2.491938e-02  0 
 1.432446e-02  -2.808124e-02  0 
 1.798397e-02  -2.421794e-02  0 
 1.430578e-02  -2.428207e-02  0 
 1.547122e-02  -2.494468e-02  0 
 1.409031e-02  -2.496482e-02  0 
 1.487176e-02  -2.683912e-02  0 
 1.496283e-02  -2.825345e-02  0 
 1.825412e-02  -2.833409e-02  0 
 1.710284e-02  -2.429998e-02  0 
VECTORS displacement_ITER2 FLOAT
 9.598721e-03  -1.770156e-02  0 
 1.412405e-02  -1.804669e-02  0 
 9.653688e-03  -2.250931e-02  0 
 1.418831e-02  -2.246992e-02  0 
 1.040163e-02  -1.782600e-02  0 
 1.116644e-02  -1.789952e-02  0 
 1.192938e-02  -1.795365e-02  0 
 1.267022e-02  -1.798847e-02  0 
 1.340711e-02  -1.801997e-02  0 
 9.602820e-03  -1.860994e-02  0 
 9.632128e-03  -1.942944e-02  0 
 9.648152e-03  -2.021453e-02  0 
 9.652838e-03  -2.098465e-02  0 
 9.655350e-03  -2.174826e-02  0 
 1.414451e-02  -1.876010e-02  0 
 1.416152e-02  -1.949032e-02  0 
 1.417430e-02  -2.022963e-02  0 
 1.418336e-02  -2.097386e-02  0 
 1.418722e-02  -2.172206e-02  0 
 1.041749e-02  -2.250709e-02  0 
 1.117914e-02  -2.249852e-02  0 
 1.193735e-02  -2.248674e-02  0 
 1.269143e-02  -2.247588e-02  0 
 1.343985e-02  -2.247139e-02  0 
 1.214428e-02  -2.018103e-02  0 
 1.258386e-02  -2.152940e-02  0 
 1.292932e-02  -2.026894e-02  0 
 1.091862e-02  -2.014224e-02  0 
 1.181357e-02  -2.130410e-02  0 
 1.187673e-02  -1.890040e-02  0 
 1.161971e-02  -1.972404e-02  0 
 1.257656e-02  -1.946225e-02  0 
 1.158233e-02  -2.061351e-02  0 
 1.247470e-02  -2.077921e-02  0 
 1.152127e-02  -2.189978e-02  0 
 1.315811e-02  -2.103325e-02  0 
 1.345844e-02  -1.981890e-02  0 
 1.023969e-02  -1.981188e-02  0 
 1.026070e-02  -2.125733e-02  0 
 1.112877e-02  -1.850349e-02  0 
 1.336823e-02  -2.178608e-02  0 
 1.080187e-02  -1.925982e-02  0 
 1.102486e-02  -2.142189e-02  0 
 1.028384e-02  -2.053815e-02  0 
 1.211075e-02  -2.193904e-02  0 
 1.366354e-02  -2.042408e-02  0 
 1.369748e-02  -2.118218e-02  0 
 1.343167e-02  -1.910663e-02  0 
 1.033059e-02  -2.189222e-02  0 
 1.355391e-02  -1.849413e-02  0 
 1.031826e-02  -1.852912e-02  0 
 1.134453e-02  -1.912221e-02  0 
 1.012428e-02  -1.913939e-02  0 
 1.081544e-02  -2.079584e-02  0 
 1.089533e-02  -2.204449e-02  0 
 1.379622e-02  -2.211192e-02  0 
 1.278347e-02  -1.856114e-02  0 
VECTORS displacement_ITER3 FLOAT
 8.071068e-03  -1.561312e-02  0 
 1.239438e-02  -1.592577e-02  0 
 8.123180e-03  -2.019477e-02  0 
 1.244579e-02  -2.015985e-02  0 
 8.829109e-03  -1.573259e-02  0 
 9.563145e-03  -1.580378e-02  0 
 1.028943e-02  -1.585267e-02  0 
 1.099648e-02  -1.588140e-02  0 
 1.170203e-02  -1.590673e-02  0 
 8.075198e-03  -1.647583e-02  0 
 8.099383e-03  -1.725575e-02  0 
 8.115084e-03  -1.800386e-02  0 
 8.121895e-03  -1.873685e-02  0 
 8.124400e-03  -1.946565e-02  0 
 1.240976e-02  -1.661549e-02  0 
 1.242331e-02  -1.731594e-02  0 
 1.243391e-02  -1.802257e-02  0 
 1.244148e-02  -1.873306e-02  0 
 1.244482e-02  -1.944664e-02  0 
 8.851251e-03  -2.019111e-02  0 
 9.576988e-03  -2.018336e-02  0 
 1.029944e-02  -2.017359e-02  0 
 1.101830e-02  -2.016457e-02  0 
 1.173205e-02  -2.016100e-02  0 
 1.049464e-02  -1.797561e-02  0 
 1.091517e-02  -1.926200e-02  0 
 1.124397e-02  -1.806048e-02  0 
 9.326687e-03  -1.793701e-02  0 
 1.018050e-02  -1.904610e-02  0 
 1.023848e-02  -1.675444e-02  0 
 9.994073e-03  -1.753937e-02  0 
 1.090628e-02  -1.729019e-02  0 
 9.959393e-03  -1.838723e-02  0 
 1.081048e-02  -1.854660e-02  0 
 9.902463e-03  -1.961342e-02  0 
 1.146276e-02  -1.878963e-02  0 
 1.174955e-02  -1.763108e-02  0 
 8.679434e-03  -1.762106e-02  0 
 8.701167e-03  -1.899842e-02  0 
 9.526083e-03  -1.637820e-02  0 
 1.166352e-02  -1.950756e-02  0 
 9.214891e-03  -1.709628e-02  0 
 9.429147e-03  -1.915714e-02  0 
 8.722073e-03  -1.831364e-02  0 
 1.046430e-02  -1.965186e-02  0 
 1.194540e-02  -1.820876e-02  0 
 1.197767e-02  -1.893184e-02  0 
 1.172410e-02  -1.695015e-02  0 
 8.768634e-03  -1.960445e-02  0 
 1.184216e-02  -1.636217e-02  0 
 8.752280e-03  -1.639962e-02  0 
 9.731487e-03  -1.696593e-02  0 
 8.568915e-03  -1.697898e-02  0 
 9.228878e-03  -1.856000e-02  0 
 9.306375e-03  -1.975027e-02  0 
 1.207184e-02  -1.981842e-02  0 
 1.110349e-02  -1.642880e-02  0 
VECTORS displacement_ITER4 FLOAT
 7.001417e-03  -1.491147e-02  0 
 1.142776e-02  -1.521128e-02  0 
 7.059305e-03  -1.957516e-02  0 
 1.147674e-02  -1.954863e-02  0 
 7.776158e-03  -1.502518e-02  0 
 8.528342e-03  -1.509374e-02  0 
 9.269647e-03  -1.514054e-02  0 
 9.994836e-03  -1.516751e-02  0 
 1.071779e-02  -1.519154e-02  0 
 7.006852e-03  -1.578258e-02  0 
 7.031820e-03  -1.657839e-02  0 
 7.047842e-03  -1.734281e-02  0 
 7.055384e-03  -1.809075e-02  0 
 7.058713e-03  -1.883333e-02  0 
 1.144267e-02  -1.591808e-02  0 
 1.145552e-02  -1.663613e-02  0 
 1.146553e-02  -1.736014e-02  0 
 1.147268e-02  -1.808782e-02  0 
 1.147583e-02  -1.881842e-02  0 
 7.800517e-03  -1.957430e-02  0 
 8.541313e-03  -1.956908e-02  0 
 9.279832e-03  -1.956091e-02  0 
 1.001532e-02  -1.955286e-02  0 
 1.074605e-02  -1.954965e-02  0 
 9.478809e-03  -1.731358e-02  0 
 9.909464e-03  -1.862921e-02  0 
 1.024628e-02  -1.739995e-02  0 
 8.284174e-03  -1.727444e-02  0 
 9.157465e-03  -1.840796e-02  0 
 9.216885e-03  -1.606427e-02  0 
 8.966424e-03  -1.686786e-02  0 
 9.900666e-03  -1.661179e-02  0 
 8.931075e-03  -1.773443e-02  0 
 9.802153e-03  -1.789748e-02  0 
 8.873415e-03  -1.898747e-02  0 
 1.047016e-02  -1.814609e-02  0 
 1.076465e-02  -1.695986e-02  0 
 7.623509e-03  -1.695168e-02  0 
 7.646103e-03  -1.835791e-02  0 
 8.488739e-03  -1.568131e-02  0 
 1.067578e-02  -1.888084e-02  0 
 8.169454e-03  -1.641634e-02  0 
 8.389329e-03  -1.852070e-02  0 
 7.667195e-03  -1.765906e-02  0 
 9.448129e-03  -1.902762e-02  0 
 1.096486e-02  -1.755126e-02  0 
 1.099758e-02  -1.829152e-02  0 
 1.073929e-02  -1.626222e-02  0 
 7.715423e-03  -1.897632e-02  0 
 1.086114e-02  -1.565907e-02  0 
 7.695896e-03  -1.570618e-02  0 
 8.698206e-03  -1.628175e-02  0 
 7.510185e-03  -1.629613e-02  0 
 8.184541e-03  -1.791069e-02  0 
 8.264389e-03  -1.912609e-02  0 
 1.109387e-02  -1.919908e-02  0 
 1.010356e-02  -1.572881e-02  0 
VECTORS displacement_ITER5 FLOAT
 6.464891e-03  -1.464057e-02  0 
 1.093182e-02  -1.493624e-02  0 
 6.529249e-03  -1.933268e-02  0 
 1.098048e-02  -1.931052e-02  0 
 7.250588e-03  -1.475293e-02  0 
 8.007367e-03  -1.481865e-02  0 
 8.755319e-03  -1.486520e-02  0 
 9.487317e-03  -1.489330e-02  0 
 1.021608e-02  -1.491764e-02  0 
 6.474279e-03  -1.551411e-02  0 
 6.500068e-03  -1.631593e-02  0 
 6.515720e-03  -1.708606e-02  0 
 6.523888e-03  -1.784052e-02  0 
 6.528252e-03  -1.858842e-02  0 
 1.094660e-02  -1.564951e-02  0 
 1.095944e-02  -1.637346e-02  0 
 1.096938e-02  -1.710359e-02  0 
 1.097648e-02  -1.783741e-02  0 
 1.097958e-02  -1.857416e-02  0 
 7.274797e-03  -1.933389e-02  0 
 8.020923e-03  -1.932999e-02  0 
 8.765295e-03  -1.932239e-02  0 
 9.506801e-03  -1.931463e-02  0 
 1.024367e-02  -1.931151e-02  0 
 8.965830e-03  -1.705744e-02  0 
 9.399992e-03  -1.838338e-02  0 
 9.739831e-03  -1.714405e-02  0 
 7.761375e-03  -1.701793e-02  0 
 8.641742e-03  -1.816026e-02  0 
 8.701938e-03  -1.579783e-02  0 
 8.449080e-03  -1.660838e-02  0 
 9.391663e-03  -1.634965e-02  0 
 8.413514e-03  -1.748156e-02  0 
 9.291786e-03  -1.764580e-02  0 
 8.355461e-03  -1.874417e-02  0 
 9.965445e-03  -1.789630e-02  0 
 1.026268e-02  -1.670010e-02  0 
 7.095772e-03  -1.669201e-02  0 
 7.118910e-03  -1.810986e-02  0 
 7.967073e-03  -1.541174e-02  0 
 1.017278e-02  -1.863713e-02  0 
 7.644980e-03  -1.615328e-02  0 
 7.867464e-03  -1.827366e-02  0 
 7.140073e-03  -1.740540e-02  0 
 8.934857e-03  -1.878490e-02  0 
 1.046445e-02  -1.729642e-02  0 
 1.049734e-02  -1.804289e-02  0 
 1.023735e-02  -1.599661e-02  0 
 7.188605e-03  -1.873224e-02  0 
 1.036027e-02  -1.538857e-02  0 
 7.168068e-03  -1.543952e-02  0 
 8.178480e-03  -1.601737e-02  0 
 6.981677e-03  -1.603218e-02  0 
 7.661199e-03  -1.765910e-02  0 
 7.741673e-03  -1.888343e-02  0 
 1.059440e-02  -1.895804e-02  0 
 9.596885e-03  -1.545921e-02  0 
VECTORS displacement_ITER6 FLOAT
 6.251682e-03  -1.455309e-02  0 
 1.068243e-02  -1.484244e-02  0 
 6.318460e-03  -1.920010e-02  0 
 1.073004e-02  -1.918065e-02  0 
 7.031028e-03  -1.466184e-02  0 
 7.782112e-03  -1.472687e-02  0 
 8.524318e-03  -1.477246e-02  0 
 9.249207e-03  -1.479994e-02  0 
 9.972358e-03  -1.482397e-02  0 
 6.261516e-03  -1.541668e-02  0 
 6.287290e-03  -1.621145e-02  0 
 6.303474e-03  -1.697409e-02  0 
 6.311488e-03  -1.772164e-02  0 
 6.316188e-03  -1.846303e-02  0 
 1.069690e-02  -1.554982e-02  0 
 1.070947e-02  -1.626787e-02  0 
 1.071919e-02  -1.699198e-02  0 
 1.072613e-02  -1.771975e-02  0 
 1.072917e-02  -1.845040e-02  0 
 7.056246e-03  -1.920204e-02  0 
 7.795536e-03  -1.919897e-02  0 
 8.533428e-03  -1.919191e-02  0 
 9.268622e-03  -1.918455e-02  0 
 9.999366e-03  -1.918159e-02  0 
 8.732028e-03  -1.694648e-02  0 
 9.162627e-03  -1.826114e-02  0 
 9.499705e-03  -1.703227e-02  0 
 7.537669e-03  -1.690740e-02  0 
 8.410716e-03  -1.803981e-02  0 
 8.470739e-03  -1.569746e-02  0 
 8.219657e-03  -1.650140e-02  0 
 9.154435e-03  -1.624442e-02  0 
 8.184363e-03  -1.736701e-02  0 
 9.055287e-03  -1.752985e-02  0 
 8.127008e-03  -1.861849e-02  0 
 9.723404e-03  -1.777822e-02  0 
 1.001834e-02  -1.659193e-02  0 
 6.877805e-03  -1.658430e-02  0 
 6.901325e-03  -1.798916e-02  0 
 7.741923e-03  -1.531514e-02  0 
 9.929028e-03  -1.851285e-02  0 
 7.422136e-03  -1.605059e-02  0 
 7.643230e-03  -1.815198e-02  0 
 6.922006e-03  -1.729089e-02  0 
 8.701432e-03  -1.865913e-02  0 
 1.021838e-02  -1.718329e-02  0 
 1.025094e-02  -1.792356e-02  0 
 9.993324e-03  -1.589424e-02  0 
 6.970648e-03  -1.860627e-02  0 
 1.011536e-02  -1.529110e-02  0 
 6.948752e-03  -1.534313e-02  0 
 7.951410e-03  -1.591550e-02  0 
 6.764452e-03  -1.593028e-02  0 
 7.438606e-03  -1.754271e-02  0 
 7.518647e-03  -1.875624e-02  0 
 1.034716e-02  -1.883109e-02  0 
 9.357946e-03  -1.536114e-02  0 
VECTORS displacement_ITER7 FLOAT
 6.176985e-03  -1.449247e-02  0 
 1.059640e-02  -1.478173e-02  0 
 6.245034e-03  -1.912714e-02  0 
 1.064407e-02  -1.910724e-02  0 
 6.955847e-03  -1.460086e-02  0 
 7.704990e-03  -1.466643e-02  0 
 8.444718e-03  -1.471194e-02  0 
 9.167627e-03  -1.473959e-02  0 
 9.888634e-03  -1.476356e-02  0 
 6.188268e-03  -1.535359e-02  0 
 6.214458e-03  -1.614675e-02  0 
 6.229926e-03  -1.690697e-02  0 
 6.238398e-03  -1.765258e-02  0 
 6.243394e-03  -1.839167e-02  0 
 1.061092e-02  -1.548714e-02  0 
 1.062349e-02  -1.620307e-02  0 
 1.063322e-02  -1.692503e-02  0 
 1.064017e-02  -1.765065e-02  0 
 1.064320e-02  -1.837914e-02  0 
 6.981084e-03  -1.912875e-02  0 
 7.718252e-03  -1.912552e-02  0 
 8.453922e-03  -1.911851e-02  0 
 9.186963e-03  -1.911114e-02  0 
 9.915555e-03  -1.910818e-02  0 
 8.652000e-03  -1.687965e-02  0 
 9.081292e-03  -1.819044e-02  0 
 9.417383e-03  -1.696516e-02  0 
 7.461109e-03  -1.684067e-02  0 
 8.331602e-03  -1.796979e-02  0 
 8.391448e-03  -1.563421e-02  0 
 8.141139e-03  -1.643586e-02  0 
 9.073168e-03  -1.617965e-02  0 
 8.105934e-03  -1.729897e-02  0 
 8.974283e-03  -1.746129e-02  0 
 8.048707e-03  -1.854680e-02  0 
 9.640416e-03  -1.770893e-02  0 
 9.934447e-03  -1.652614e-02  0 
 6.803042e-03  -1.651826e-02  0 
 6.826620e-03  -1.791937e-02  0 
 7.664958e-03  -1.525294e-02  0 
 9.845428e-03  -1.844140e-02  0 
 7.345803e-03  -1.598639e-02  0 
 7.566335e-03  -1.808167e-02  0 
 6.847174e-03  -1.722314e-02  0 
 8.621447e-03  -1.858729e-02  0 
 1.013391e-02  -1.711576e-02  0 
 1.016638e-02  -1.785385e-02  0 
 9.909474e-03  -1.583052e-02  0 
 6.895784e-03  -1.853445e-02  0 
 1.003113e-02  -1.522917e-02  0 
 6.873634e-03  -1.528109e-02  0 
 7.873705e-03  -1.585158e-02  0 
 6.690112e-03  -1.586638e-02  0 
 7.362316e-03  -1.747421e-02  0 
 7.442190e-03  -1.868408e-02  0 
 1.026233e-02  -1.875871e-02  0 
 9.276066e-03  -1.529908e-02  0 
VECTORS displacement_ITER8 FLOAT
 6.163123e-03  -1.448937e-02  0 
 1.059051e-02  -1.477790e-02  0 
 6.231248e-03  -1.913053e-02  0 
 1.063836e-02  -1.911166e-02  0 
 6.943161e-03  -1.459687e-02  0 
 7.693460e-03  -1.466210e-02  0 
 8.434590e-03  -1.470759e-02  0 
 9.159147e-03  -1.473506e-02  0 
 9.881495e-03  -1.475918e-02  0 
 6.174025e-03  -1.535140e-02  0 
 6.200372e-03  -1.614560e-02  0 
 6.215743e-03  -1.690738e-02  0 
 6.223931e-03  -1.765426e-02  0 
 6.229155e-03  -1.839413e-02  0 
 1.060514e-02  -1.548427e-02  0 
 1.061776e-02  -1.620155e-02  0 
 1.062751e-02  -1.692498e-02  0 
 1.063446e-02  -1.765207e-02  0 
 1.063749e-02  -1.838206e-02  0 
 6.968172e-03  -1.913262e-02  0 
 7.706626e-03  -1.912975e-02  0 
 8.443733e-03  -1.912287e-02  0 
 9.178259e-03  -1.911555e-02  0 
 9.908346e-03  -1.911259e-02  0 
 8.642225e-03  -1.687964e-02  0 
 9.072363e-03  -1.819299e-02  0 
 9.409186e-03  -1.696526e-02  0 
 7.448958e-03  -1.684066e-02  0 
 8.321143e-03  -1.797190e-02  0 
 8.381194e-03  -1.563175e-02  0 
 8.130329e-03  -1.643503e-02  0 
 9.064317e-03  -1.617822e-02  0 
 8.095033e-03  -1.729979e-02  0 
 8.965145e-03  -1.746240e-02  0 
 8.037680e-03  -1.855000e-02  0 
 9.632645e-03  -1.771050e-02  0 
 9.927352e-03  -1.652530e-02  0 
 6.789781e-03  -1.651776e-02  0 
 6.813224e-03  -1.792139e-02  0 
 7.653297e-03  -1.524980e-02  0 
 9.838073e-03  -1.844446e-02  0 
 7.333459e-03  -1.598487e-02  0 
 7.554354e-03  -1.808399e-02  0 
 6.833896e-03  -1.722387e-02  0 
 8.611580e-03  -1.859061e-02  0 
 1.012718e-02  -1.711610e-02  0 
 1.015969e-02  -1.785570e-02  0 
 9.902398e-03  -1.582829e-02  0 
 6.882603e-03  -1.853748e-02  0 
 1.002432e-02  -1.522579e-02  0 
 6.860518e-03  -1.527841e-02  0 
 7.862422e-03  -1.584965e-02  0 
 6.676640e-03  -1.586481e-02  0 
 7.349963e-03  -1.747537e-02  0 
 7.429996e-03  -1.868745e-02  0 
 1.025583e-02  -1.876242e-02  0 
 9.267734e-03  -1.529580e-02  0 
VECTORS displacement_ITER9 FLOAT
 6.170571e-03  -1.448925e-02  0 
 1.057550e-02  -1.477751e-02  0 
 6.237749e-03  -1.910901e-02  0 
 1.062307e-02  -1.908955e-02  0 
 6.946392e-03  -1.459693e-02  0 
 7.692688e-03  -1.466205e-02  0 
 8.430153e-03  -1.470776e-02  0 
 9.151247e-03  -1.473519e-02  0 
 9.869900e-03  -1.475919e-02  0 
 6.181222e-03  -1.534775e-02  0 
 6.207034e-03  -1.613788e-02  0 
 6.222597e-03  -1.689618e-02  0 
 6.230903e-03  -1.763948e-02  0 
 6.235865e-03  -1.837602e-02  0 
 1.058998e-02  -1.548061e-02  0 
 1.060253e-02  -1.619430e-02  0 
 1.061224e-02  -1.691405e-02  0 
 1.061917e-02  -1.763743e-02  0 
 1.062220e-02  -1.836369e-02  0 
 6.971311e-03  -1.911083e-02  0 
 7.706184e-03  -1.910775e-02  0 
 8.439622e-03  -1.910079e-02  0 
 9.170430e-03  -1.909344e-02  0 
 9.896787e-03  -1.909049e-02  0 
 8.637098e-03  -1.686877e-02  0 
 9.065079e-03  -1.817556e-02  0 
 9.400133e-03  -1.695405e-02  0 
 7.449843e-03  -1.682985e-02  0 
 8.317673e-03  -1.795557e-02  0 
 8.377228e-03  -1.562712e-02  0 
 8.127763e-03  -1.642629e-02  0 
 9.056971e-03  -1.617097e-02  0 
 8.092692e-03  -1.728679e-02  0 
 8.958396e-03  -1.744864e-02  0 
 8.035631e-03  -1.853082e-02  0 
 9.622487e-03  -1.769553e-02  0 
 9.915616e-03  -1.651638e-02  0 
 6.793867e-03  -1.650847e-02  0 
 6.817246e-03  -1.790531e-02  0 
 7.652914e-03  -1.524680e-02  0 
 9.826874e-03  -1.842576e-02  0 
 7.334892e-03  -1.597808e-02  0 
 7.554722e-03  -1.806711e-02  0 
 6.837803e-03  -1.721123e-02  0 
 8.606637e-03  -1.857119e-02  0 
 1.011446e-02  -1.710418e-02  0 
 1.014684e-02  -1.784001e-02  0 
 9.890731e-03  -1.582290e-02  0 
 6.886225e-03  -1.851848e-02  0 
 1.001200e-02  -1.522343e-02  0 
 6.864338e-03  -1.527493e-02  0 
 7.861113e-03  -1.584375e-02  0 
 6.681227e-03  -1.585847e-02  0 
 7.351333e-03  -1.746149e-02  0 
 7.430949e-03  -1.866766e-02  0 
 1.024249e-02  -1.874210e-02  0 
 9.259286e-03  -1.529309e-02  0 
VECTORS displacement_ITER10 FLOAT
 6.169572e-03  -1.448442e-02  0 
 1.057751e-02  -1.477321e-02  0 
 6.235386e-03  -1.910920e-02  0 
 1.062526e-02  -1.908890e-02  0 
 6.945317e-03  -1.459242e-02  0 
 7.692341e-03  -1.465773e-02  0 
 8.430435e-03  -1.470323e-02  0 
 9.152006e-03  -1.473052e-02  0 
 9.871357e-03  -1.475462e-02  0 
 6.179755e-03  -1.534392e-02  0 
 6.205227e-03  -1.613472e-02  0 
 6.220839e-03  -1.689361e-02  0 
 6.228976e-03  -1.763745e-02  0 
 6.233610e-03  -1.837500e-02  0 
 1.059208e-02  -1.547675e-02  0 
 1.060468e-02  -1.619107e-02  0 
 1.061441e-02  -1.691146e-02  0 
 1.062136e-02  -1.763549e-02  0 
 1.062439e-02  -1.836239e-02  0 
 6.970031e-03  -1.911067e-02  0 
 7.705736e-03  -1.910731e-02  0 
 8.439885e-03  -1.910020e-02  0 
 9.171343e-03  -1.909280e-02  0 
 9.898338e-03  -1.908984e-02  0 
 8.637513e-03  -1.686607e-02  0 
 9.065906e-03  -1.817410e-02  0 
 9.401227e-03  -1.695148e-02  0 
 7.449201e-03  -1.682709e-02  0 
 8.317841e-03  -1.795391e-02  0 
 8.377393e-03  -1.562335e-02  0 
 8.127723e-03  -1.642316e-02  0 
 9.057713e-03  -1.616766e-02  0 
 8.092638e-03  -1.728446e-02  0 
 8.959120e-03  -1.744651e-02  0 
 8.035548e-03  -1.852972e-02  0 
 9.623796e-03  -1.769363e-02  0 
 9.917169e-03  -1.651342e-02  0 
 6.792636e-03  -1.650553e-02  0 
 6.815923e-03  -1.790353e-02  0 
 7.652487e-03  -1.524282e-02  0 
 9.828366e-03  -1.842452e-02  0 
 7.334251e-03  -1.597456e-02  0 
 7.554194e-03  -1.806555e-02  0 
 6.836534e-03  -1.720881e-02  0 
 8.607060e-03  -1.857010e-02  0 
 1.011620e-02  -1.710176e-02  0 
 1.014861e-02  -1.783824e-02  0 
 9.892249e-03  -1.581931e-02  0 
 6.884940e-03  -1.851753e-02  0 
 1.001362e-02  -1.521930e-02  0 
 6.863352e-03  -1.527074e-02  0 
 7.860851e-03  -1.584017e-02  0 
 6.679977e-03  -1.585487e-02  0 
 7.350580e-03  -1.745931e-02  0 
 7.430260e-03  -1.866680e-02  0 
 1.024435e-02  -1.874113e-02  0 
 9.260165e-03  -1.528896e-02  0 
VECTORS displacement_ITER11 FLOAT
 6.171963e-03  -1.449039e-02  0 
 1.058186e-02  -1.477953e-02  0 
 6.237602e-03  -1.911759e-02  0 
 1.062961e-02  -1.909728e-02  0 
 6.947907e-03  -1.459874e-02  0 
 7.695331e-03  -1.466397e-02  0 
 8.433704e-03  -1.470948e-02  0 
 9.155653e-03  -1.473696e-02  0 
 9.875398e-03  -1.476104e-02  0 
 6.181980e-03  -1.535053e-02  0 
 6.207562e-03  -1.614183e-02  0 
 6.223225e-03  -1.690109e-02  0 
 6.231332e-03  -1.764521e-02  0 
 6.235955e-03  -1.838307e-02  0 
 1.059643e-02  -1.548346e-02  0 
 1.060902e-02  -1.619812e-02  0 
 1.061875e-02  -1.691884e-02  0 
 1.062570e-02  -1.764320e-02  0 
 1.062874e-02  -1.837044e-02  0 
 6.972678e-03  -1.911906e-02  0 
 7.708733e-03  -1.911569e-02  0 
 8.443217e-03  -1.910859e-02  0 
 9.175015e-03  -1.910119e-02  0 
 9.902347e-03  -1.909822e-02  0 
 8.640945e-03  -1.687344e-02  0 
 9.069530e-03  -1.818206e-02  0 
 9.405009e-03  -1.695888e-02  0 
 7.452084e-03  -1.683445e-02  0 
 8.321115e-03  -1.796177e-02  0 
 8.380687e-03  -1.563013e-02  0 
 8.130914e-03  -1.643032e-02  0 
 9.061343e-03  -1.617471e-02  0 
 8.095808e-03  -1.729202e-02  0 
 8.962697e-03  -1.745413e-02  0 
 8.038691e-03  -1.853785e-02  0 
 9.627679e-03  -1.770137e-02  0 
 9.921186e-03  -1.652062e-02  0 
 6.795231e-03  -1.651279e-02  0 
 6.818511e-03  -1.791138e-02  0 
 7.655438e-03  -1.524938e-02  0 
 9.832343e-03  -1.843259e-02  0 
 7.337107e-03  -1.598150e-02  0 
 7.557107e-03  -1.807346e-02  0 
 6.839139e-03  -1.721637e-02  0 
 8.610470e-03  -1.857824e-02  0 
 1.012031e-02  -1.710923e-02  0 
 1.015273e-02  -1.784605e-02  0 
 9.896256e-03  -1.582620e-02  0 
 6.887543e-03  -1.852561e-02  0 
 1.001770e-02  -1.522591e-02  0 
 6.866009e-03  -1.527727e-02  0 
 7.863919e-03  -1.584705e-02  0 
 6.682523e-03  -1.586181e-02  0 
 7.353409e-03  -1.746695e-02  0 
 7.433127e-03  -1.867497e-02  0 
 1.024852e-02  -1.874935e-02  0 
 9.263895e-03  -1.529564e-02  0 
VECTORS displacement_ITER12 FLOAT
 6.178051e-03  -1.449666e-02  0 
 1.058745e-02  -1.478590e-02  0 
 6.243628e-03  -1.912350e-02  0 
 1.063524e-02  -1.910314e-02  0 
 6.953840e-03  -1.460511e-02  0 
 7.701228e-03  -1.467025e-02  0 
 8.439549e-03  -1.471572e-02  0 
 9.161436e-03  -1.474321e-02  0 
 9.881097e-03  -1.476732e-02  0 
 6.188050e-03  -1.535675e-02  0 
 6.213601e-03  -1.614792e-02  0 
 6.229253e-03  -1.690706e-02  0 
 6.237356e-03  -1.765118e-02  0 
 6.242013e-03  -1.838903e-02  0 
 1.060205e-02  -1.548968e-02  0 
 1.061465e-02  -1.620425e-02  0 
 1.062439e-02  -1.692491e-02  0 
 1.063134e-02  -1.764920e-02  0 
 1.063437e-02  -1.837637e-02  0 
 6.978658e-03  -1.912495e-02  0 
 7.714652e-03  -1.912156e-02  0 
 8.449066e-03  -1.911444e-02  0 
 9.180791e-03  -1.910705e-02  0 
 9.908051e-03  -1.910408e-02  0 
 8.646768e-03  -1.687951e-02  0 
 9.075315e-03  -1.818801e-02  0 
 9.410762e-03  -1.696494e-02  0 
 7.458019e-03  -1.684051e-02  0 
 8.326976e-03  -1.796774e-02  0 
 8.386524e-03  -1.563632e-02  0 
 8.136776e-03  -1.643643e-02  0 
 9.067128e-03  -1.618085e-02  0 
 8.101687e-03  -1.729805e-02  0 
 8.968492e-03  -1.746015e-02  0 
 8.044582e-03  -1.854376e-02  0 
 9.633410e-03  -1.770736e-02  0 
 9.926894e-03  -1.652672e-02  0 
 6.801209e-03  -1.651884e-02  0 
 6.824518e-03  -1.791736e-02  0 
 7.661316e-03  -1.525562e-02  0 
 9.838054e-03  -1.843852e-02  0 
 7.343033e-03  -1.598763e-02  0 
 7.563046e-03  -1.807941e-02  0 
 6.845135e-03  -1.722236e-02  0 
 8.616302e-03  -1.858415e-02  0 
 1.012600e-02  -1.711527e-02  0 
 1.015841e-02  -1.785203e-02  0 
 9.901970e-03  -1.583236e-02  0 
 6.893537e-03  -1.853154e-02  0 
 1.002340e-02  -1.523214e-02  0 
 6.871990e-03  -1.528348e-02  0 
 7.869791e-03  -1.585321e-02  0 
 6.688516e-03  -1.586794e-02  0 
 7.359366e-03  -1.747295e-02  0 
 7.439074e-03  -1.868088e-02  0 
 1.025419e-02  -1.875525e-02  0 
 9.269671e-03  -1.530184e-02  0 
VECTORS displacement_ITER13 FLOAT
 6.176910e-03  -1.449743e-02  0 
 1.058498e-02  -1.478650e-02  0 
 6.242735e-03  -1.912250e-02  0 
 1.063276e-02  -1.910232e-02  0 
 6.952520e-03  -1.460579e-02  0 
 7.699697e-03  -1.467092e-02  0 
 8.437819e-03  -1.471640e-02  0 
 9.159456e-03  -1.474380e-02  0 
 9.878870e-03  -1.476789e-02  0 
 6.187005e-03  -1.535719e-02  0 
 6.212576e-03  -1.614803e-02  0 
 6.228177e-03  -1.690689e-02  0 
 6.236282e-03  -1.765082e-02  0 
 6.241027e-03  -1.838837e-02  0 
 1.059958e-02  -1.549003e-02  0 
 1.061218e-02  -1.620437e-02  0 
 1.062191e-02  -1.692479e-02  0 
 1.062885e-02  -1.764885e-02  0 
 1.063189e-02  -1.837579e-02  0 
 6.977399e-03  -1.912403e-02  0 
 7.713120e-03  -1.912070e-02  0 
 8.447289e-03  -1.911361e-02  0 
 9.178774e-03  -1.910622e-02  0 
 9.905799e-03  -1.910326e-02  0 
 8.644920e-03  -1.687943e-02  0 
 9.073330e-03  -1.818749e-02  0 
 9.408670e-03  -1.696482e-02  0 
 7.456562e-03  -1.684043e-02  0 
 8.325234e-03  -1.796729e-02  0 
 8.384778e-03  -1.563666e-02  0 
 8.135097e-03  -1.643650e-02  0 
 9.065151e-03  -1.618099e-02  0 
 8.100022e-03  -1.729782e-02  0 
 8.966540e-03  -1.745987e-02  0 
 8.042933e-03  -1.854311e-02  0 
 9.631244e-03  -1.770700e-02  0 
 9.924642e-03  -1.652674e-02  0 
 6.799961e-03  -1.651883e-02  0 
 6.823280e-03  -1.791693e-02  0 
 7.659796e-03  -1.525610e-02  0 
 9.835823e-03  -1.843792e-02  0 
 7.341592e-03  -1.598785e-02  0 
 7.561559e-03  -1.807892e-02  0 
 6.843885e-03  -1.722213e-02  0 
 8.614467e-03  -1.858349e-02  0 
 1.012368e-02  -1.711510e-02  0 
 1.015608e-02  -1.785162e-02  0 
 9.899733e-03  -1.583260e-02  0 
 6.892292e-03  -1.853088e-02  0 
 1.002112e-02  -1.523257e-02  0 
 6.870685e-03  -1.528398e-02  0 
 7.868197e-03  -1.585348e-02  0 
 6.687295e-03  -1.586819e-02  0 
 7.357951e-03  -1.747266e-02  0 
 7.437630e-03  -1.868017e-02  0 
 1.025183e-02  -1.875454e-02  0 
 9.267636e-03  -1.530226e-02  0 
VECTORS displacement_ITER14 FLOAT
 6.174488e-03  -1.449744e-02  0 
 1.058231e-02  -1.478662e-02  0 
 6.240618e-03  -1.912204e-02  0 
 1.063008e-02  -1.910197e-02  0 
 6.950249e-03  -1.460582e-02  0 
 7.697339e-03  -1.467100e-02  0 
 8.435391e-03  -1.471656e-02  0 
 9.156960e-03  -1.474398e-02  0 
 9.876274e-03  -1.476806e-02  0 
 6.184693e-03  -1.535715e-02  0 
 6.210370e-03  -1.614800e-02  0 
 6.225994e-03  -1.690685e-02  0 
 6.234129e-03  -1.765067e-02  0 
 6.238876e-03  -1.838806e-02  0 
 1.059690e-02  -1.549009e-02  0 
 1.060949e-02  -1.620435e-02  0 
 1.061923e-02  -1.692469e-02  0 
 1.062617e-02  -1.764866e-02  0 
 1.062921e-02  -1.837552e-02  0 
 6.975145e-03  -1.912362e-02  0 
 7.710762e-03  -1.912033e-02  0 
 8.444845e-03  -1.911326e-02  0 
 9.176253e-03  -1.910588e-02  0 
 9.903199e-03  -1.910291e-02  0 
 8.642470e-03  -1.687933e-02  0 
 9.070822e-03  -1.818724e-02  0 
 9.406131e-03  -1.696471e-02  0 
 7.454240e-03  -1.684036e-02  0 
 8.322806e-03  -1.796707e-02  0 
 8.382371e-03  -1.563670e-02  0 
 8.132711e-03  -1.643646e-02  0 
 9.062660e-03  -1.618097e-02  0 
 8.097625e-03  -1.729769e-02  0 
 8.964047e-03  -1.745970e-02  0 
 8.040531e-03  -1.854282e-02  0 
 9.628677e-03  -1.770681e-02  0 
 9.922039e-03  -1.652668e-02  0 
 6.797717e-03  -1.651881e-02  0 
 6.821024e-03  -1.791672e-02  0 
 7.657471e-03  -1.525615e-02  0 
 9.833232e-03  -1.843764e-02  0 
 7.339285e-03  -1.598788e-02  0 
 7.559210e-03  -1.807869e-02  0 
 6.841632e-03  -1.722204e-02  0 
 8.612006e-03  -1.858320e-02  0 
 1.012105e-02  -1.711497e-02  0 
 1.015345e-02  -1.785140e-02  0 
 9.897131e-03  -1.583263e-02  0 
 6.890034e-03  -1.853057e-02  0 
 1.001850e-02  -1.523268e-02  0 
 6.868397e-03  -1.528404e-02  0 
 7.865847e-03  -1.585350e-02  0 
 6.685040e-03  -1.586821e-02  0 
 7.355629e-03  -1.747252e-02  0 
 7.435301e-03  -1.867986e-02  0 
 1.024919e-02  -1.875423e-02  0 
 9.265123e-03  -1.530236e-02  0 
VECTORS displacement_ITER15 FLOAT
 6.175785e-03  -1.449667e-02  0 
 1.058374e-02  -1.478569e-02  0 
 6.242064e-03  -1.912113e-02  0 
 1.063144e-02  -1.910112e-02  0 
 6.951630e-03  -1.460495e-02  0 
 7.698751e-03  -1.467019e-02  0 
 8.436792e-03  -1.471574e-02  0 
 9.158317e-03  -1.474315e-02  0 
 9.877637e-03  -1.476719e-02  0 
 6.186022e-03  -1.535628e-02  0 