# vtk DataFile Version 3.1
this is an vtk file created by FEMAC
ASCII
DATASET UNSTRUCTURED_GRID
POINTS 56 FLOAT
1.000000 1.000000 0.000000
1.000000 2.000000 0.000000
2.000000 1.000000 0.000000
2.000000 2.000000 0.000000
1.000000 1.166667 0.000000
1.000000 1.333333 0.000000
1.000000 1.500000 0.000000
1.000000 1.666667 0.000000
1.000000 1.833333 0.000000
1.166667 1.000000 0.000000
1.333333 1.000000 0.000000
1.500000 1.000000 0.000000
1.666667 1.000000 0.000000
1.833333 1.000000 0.000000
1.166667 2.000000 0.000000
1.333333 2.000000 0.000000
1.500000 2.000000 0.000000
1.666667 2.000000 0.000000
1.833333 2.000000 0.000000
2.000000 1.166667 0.000000
2.000000 1.333333 0.000000
2.000000 1.500000 0.000000
2.000000 1.666667 0.000000
2.000000 1.833333 0.000000
1.553250 1.485053 0.000000
1.288464 1.341434 0.000000
1.855424 1.262538 0.000000
1.291507 1.663641 0.000000
1.737087 1.680023 0.000000
1.141144 1.750013 0.000000
1.546855 1.287636 0.000000
1.573027 1.645709 0.000000
1.837166 1.477329 0.000000
1.282421 1.491774 0.000000
1.418910 1.394793 0.000000
1.698534 1.368359 0.000000
1.607447 1.818225 0.000000
1.424263 1.574726 0.000000
1.719475 1.161417 0.000000
1.143600 1.586830 0.000000
1.896370 1.615393 0.000000
1.145688 1.266807 0.000000
1.674153 1.535965 0.000000
1.270305 1.149545 0.000000
1.240408 1.849618 0.000000
1.882220 1.761007 0.000000
1.125358 1.134532 0.000000
1.424284 1.793131 0.000000
1.544270 1.125516 0.000000
1.414729 1.098222 0.000000
1.773904 1.862654 0.000000
1.413922 1.232858 0.000000
1.143362 1.420030 0.000000
1.881646 1.118124 0.000000
1.109644 1.886593 0.000000
1.897891 1.891399 0.000000
CELLS 86 344 
3 26 19 20
3 29  8  7
3 24 34 30
3 25 34 33
3 35 24 30
3 35 26 32
3 37 24 31
3 37 27 33
3 7 39 29
3 39 27 29
3 40 21 22
3 40 28 32
3 21 40 32
3 24 42 31
3 28 42 32
3 42 28 31
3 44 15 14
3 23 45 22
3 45 40 22
3 28 40 45
3 35 42 24
3 35 32 42
3 37 34 24
3 33 34 37
3 46  4  0
3 9 46  0
3 13 38 12
3 35 38 26
3 30 38 35
3 6 39  7
3 27 39 33
3 16 36 17
3 28 36 31
3 43  9 10
3 46  9 43
3 41 43 25
3 4 41  5
3 46 41  4
3 41 46 43
3 27 44 29
3 20 21 32
3 26 20 32
3 47 44 27
3 30 48 38
3 11 49 10
3 49 43 10
3 49 11 48
3 50 36 28
3 45 50 28
3 51 30 34
3 30 51 48
3 52 39  6
3 39 52 33
3 53 13  2
3 19 53  2
3 8 54  1
3 54 14  1
3 37 47 27
3 37 31 47
3 25 51 34
3 25 43 51
3 5 52  6
3 5 41 52
3 52 25 33
3 41 25 52
3 12 48 11
3 12 38 48
3 49 51 43
3 49 48 51
3 14 54 44
3 54 29 44
3 29 54  8
3 13 53 38
3 53 26 38
3 26 53 19
3 36 50 17
3 47 36 16
3 36 47 31
3 15 44 47
3 15 47 16
3 50 18 17
3 55 23  3
3 23 55 45
3 18 55  3
3 50 55 18
3 50 45 55
CELL_TYPES 86
5 5 5 5 5 5 5 5 5 5 5 5 5 5 5 5 5 5 5 5 5 5 5 5 5 5 5 5 5 5 5 5 5 5 5 5 5 5 5 5 5 5 5 5 5 5 5 5 5 5 5 5 5 5 5 5 5 5 5 5 5 5 5 5 5 5 5 5 5 5 5 5 5 5 5 5 5 5 5 5 5 5 5 5 5 5 
POINT_DATA 56
VECTORS displacement_ITER1 FLOAT
 -1.529119e-03  -4.804705e-04  0 
 -4.930903e-04  -1.175952e-03  0 
 -2.656519e-03  -3.850506e-03  0 
 -8.451894e-04  -3.392514e-03  0 
 -1.654826e-03  -8.909090e-04  0 
 -1.517722e-03  -1.065052e-03  0 
 -1.298744e-03  -1.131698e-03  0 
 -1.021375e-03  -1.178138e-03  0 
 -7.224304e-04  -1.170810e-03  0 
 -1.861756e-03  -1.169053e-03  0 
 -2.052565e-03  -1.639984e-03  0 
 -2.197198e-03  -2.098560e-03  0 
 -2.345432e-03  -2.542513e-03  0 
 -2.483844e-03  -3.048987e-03  0 
 -4.345473e-04  -1.475236e-03  0 
 -4.267156e-04  -1.821095e-03  0 
 -4.477635e-04  -2.179776e-03  0 
 -5.066808e-04  -2.513254e-03  0 
 -5.951784e-04  -2.898498e-03  0 
 -1.981724e-03  -3.497083e-03  0 
 -1.535786e-03  -3.268741e-03  0 
 -1.212213e-03  -3.147184e-03  0 
 -9.676835e-04  -3.097511e-03  0 
 -7.852635e-04  -3.151482e-03  0 
 -1.214533e-03  -2.189668e-03  0 
 -1.432055e-03  -1.504501e-03  0 
 -1.643702e-03  -2.951227e-03  0 
 -1.011917e-03  -1.717321e-03  0 
 -9.635641e-04  -2.669613e-03  0 
 -8.749635e-04  -1.431898e-03  0 
 -1.524294e-03  -2.096305e-03  0 
 -1.012352e-03  -2.309469e-03  0 
 -1.209830e-03  -2.816705e-03  0 
 -1.254349e-03  -1.613797e-03  0 
 -1.352363e-03  -1.827449e-03  0 
 -1.385302e-03  -2.499785e-03  0 
 -7.979371e-04  -2.433049e-03  0 
 -1.119609e-03  -1.953564e-03  0 
 -1.870951e-03  -2.591285e-03  0 
 -1.143384e-03  -1.407763e-03  0 
 -1.031260e-03  -2.937006e-03  0 
 -1.523017e-03  -1.163625e-03  0 
 -1.141076e-03  -2.487623e-03  0 
 -1.660347e-03  -1.359442e-03  0 
 -7.100158e-04  -1.623899e-03  0 
 -8.772457e-04  -2.969091e-03  0 
 -1.589376e-03  -9.681815e-04  0 
 -8.152991e-04  -2.022923e-03  0 
 -1.897531e-03  -2.120123e-03  0 
 -1.881816e-03  -1.796272e-03  0 
 -7.917377e-04  -2.808831e-03  0 
 -1.591720e-03  -1.740397e-03  0 
 -1.382522e-03  -1.311694e-03  0 
 -2.068485e-03  -3.142512e-03  0 
 -6.438476e-04  -1.353900e-03  0 
 -8.137845e-04  -3.120197e-03  0 
VECTORS displacement_ITER2 FLOAT
 -1.105412e-03  -4.411338e-04  0 
 -6.963761e-04  -1.106937e-03  0 
 -2.499306e-03  -3.390000e-03  0 
 -1.087567e-03  -2.894144e-03  0 
 -1.409561e-03  -9.058714e-04  0 
 -1.377299e-03  -1.053263e-03  0 
 -1.258106e-03  -1.129774e-03  0 
 -1.081918e-03  -1.157779e-03  0 
 -8.724856e-04  -1.164303e-03  0 
 -1.496634e-03  -1.091020e-03  0 
 -1.715948e-03  -1.453395e-03  0 
 -1.892690e-03  -1.799683e-03  0 
 -2.073613e-03  -2.149434e-03  0 
 -2.248613e-03  -2.596250e-03  0 
 -6.613884e-04  -1.386560e-03  0 
 -6.563000e-04  -1.645354e-03  0 
 -6.684346e-04  -1.885065e-03  0 
 -7.238445e-04  -2.125393e-03  0 
 -8.327321e-04  -2.408649e-03  0 
 -1.794935e-03  -2.993420e-03  0 
 -1.395698e-03  -2.721008e-03  0 
 -1.146953e-03  -2.581335e-03  0 
 -9.991920e-04  -2.528001e-03  0 
 -9.230656e-04  -2.585651e-03  0 
 -1.157566e-03  -1.856645e-03  0 
 -1.301679e-03  -1.312463e-03  0 
 -1.472239e-03  -2.463072e-03  0 
 -1.060610e-03  -1.537905e-03  0 
 -1.010446e-03  -2.252523e-03  0 
 -9.761960e-04  -1.342039e-03  0 
 -1.366114e-03  -1.749072e-03  0 
 -1.042261e-03  -1.977314e-03  0 
 -1.134294e-03  -2.335346e-03  0 
 -1.210905e-03  -1.427838e-03  0 
 -1.253037e-03  -1.558551e-03  0 
 -1.261244e-03  -2.082549e-03  0 
 -9.250188e-04  -2.084323e-03  0 
 -1.115990e-03  -1.695627e-03  0 
 -1.664208e-03  -2.155587e-03  0 
 -1.158158e-03  -1.307913e-03  0 
 -1.034140e-03  -2.427998e-03  0 
 -1.345267e-03  -1.060699e-03  0 
 -1.106290e-03  -2.096389e-03  0 
 -1.406741e-03  -1.179198e-03  0 
 -8.638114e-04  -1.486897e-03  0 
 -9.708466e-04  -2.475190e-03  0 
 -1.302863e-03  -8.729579e-04  0 
 -9.279190e-04  -1.775215e-03  0 
 -1.662145e-03  -1.778498e-03  0 
 -1.618147e-03  -1.536549e-03  0 
 -9.483023e-04  -2.375899e-03  0 
 -1.399763e-03  -1.468536e-03  0 
 -1.294510e-03  -1.211553e-03  0 
 -1.868642e-03  -2.651570e-03  0 
 -8.250444e-04  -1.286318e-03  0 
 -1.001602e-03  -2.623255e-03  0 
VECTORS displacement_ITER3 FLOAT
 -1.162818e-03  -6.841004e-04  0 
 -7.348651e-04  -1.127462e-03  0 
 -2.691513e-03  -3.571126e-03  0 
 -1.154876e-03  -3.152132e-03  0 
 -1.534560e-03  -1.116115e-03  0 
 -1.515466e-03  -1.199697e-03  0 
 -1.387321e-03  -1.238371e-03  0 
 -1.184496e-03  -1.237403e-03  0 
 -9.519969e-04  -1.220674e-03  0 
 -1.592474e-03  -1.287459e-03  0 
 -1.828011e-03  -1.611346e-03  0 
 -2.027528e-03  -1.940956e-03  0 
 -2.216628e-03  -2.297225e-03  0 
 -2.411244e-03  -2.767091e-03  0 
 -7.141081e-04  -1.467681e-03  0 
 -7.130634e-04  -1.752439e-03  0 
 -7.278498e-04  -2.023649e-03  0 
 -7.792603e-04  -2.306620e-03  0 
 -8.920133e-04  -2.610035e-03  0 
 -1.941485e-03  -3.168650e-03  0 
 -1.522971e-03  -2.891723e-03  0 
 -1.270959e-03  -2.770750e-03  0 
 -1.105750e-03  -2.735577e-03  0 
 -1.006762e-03  -2.802857e-03  0 
 -1.296464e-03  -2.009817e-03  0 
 -1.452581e-03  -1.456363e-03  0 
 -1.607876e-03  -2.619969e-03  0 
 -1.179792e-03  -1.661419e-03  0 
 -1.126687e-03  -2.430875e-03  0 
 -1.075236e-03  -1.433619e-03  0 
 -1.511345e-03  -1.892630e-03  0 
 -1.165742e-03  -2.135876e-03  0 
 -1.265184e-03  -2.509960e-03  0 
 -1.351603e-03  -1.563343e-03  0 
 -1.400263e-03  -1.703063e-03  0 
 -1.400511e-03  -2.238928e-03  0 
 -1.023447e-03  -2.248268e-03  0 
 -1.248877e-03  -1.838604e-03  0 
 -1.806839e-03  -2.298586e-03  0 
 -1.282901e-03  -1.421123e-03  0 
 -1.151083e-03  -2.618482e-03  0 
 -1.494341e-03  -1.215495e-03  0 
 -1.237893e-03  -2.260705e-03  0 
 -1.545129e-03  -1.330600e-03  0 
 -9.487416e-04  -1.587370e-03  0 
 -1.069045e-03  -2.677939e-03  0 
 -1.425585e-03  -1.049443e-03  0 
 -1.028843e-03  -1.910161e-03  0 
 -1.801567e-03  -1.918180e-03  0 
 -1.753929e-03  -1.676530e-03  0 
 -1.035583e-03  -2.571608e-03  0 
 -1.545142e-03  -1.609778e-03  0 
 -1.438664e-03  -1.344918e-03  0 
 -2.024207e-03  -2.809710e-03  0 
 -9.011895e-04  -1.360114e-03  0 
 -1.087266e-03  -2.841324e-03  0 
VECTORS displacement_ITER4 FLOAT
 -9.968190e-04  -8.307961e-04  0 
 -6.646009e-04  -1.178167e-03  0 
 -2.597149e-03  -3.563162e-03  0 
 -1.104295e-03  -3.178084e-03  0 
 -1.416030e-03  -1.237393e-03  0 
 -1.422827e-03  -1.300969e-03  0 
 -1.310927e-03  -1.323957e-03  0 
 -1.114164e-03  -1.315142e-03  0 
 -8.887782e-04  -1.286163e-03  0 
 -1.439449e-03  -1.378543e-03  0 
 -1.690518e-03  -1.674050e-03  0 
 -1.906817e-03  -1.985325e-03  0 
 -2.100883e-03  -2.335052e-03  0 
 -2.304080e-03  -2.796838e-03  0 
 -6.532889e-04  -1.528353e-03  0 
 -6.565040e-04  -1.808727e-03  0 
 -6.756250e-04  -2.074201e-03  0 
 -7.264801e-04  -2.347632e-03  0 
 -8.417294e-04  -2.635882e-03  0 
 -1.843274e-03  -3.180036e-03  0 
 -1.430860e-03  -2.905172e-03  0 
 -1.184429e-03  -2.784493e-03  0 
 -1.030841e-03  -2.748790e-03  0 
 -9.490798e-04  -2.819814e-03  0 
 -1.217218e-03  -2.050686e-03  0 
 -1.364727e-03  -1.519513e-03  0 
 -1.513370e-03  -2.636906e-03  0 
 -1.114275e-03  -1.723415e-03  0 
 -1.057150e-03  -2.465390e-03  0 
 -1.012066e-03  -1.500450e-03  0 
 -1.415954e-03  -1.928495e-03  0 
 -1.096167e-03  -2.180254e-03  0 
 -1.179330e-03  -2.531005e-03  0 
 -1.276202e-03  -1.627441e-03  0 
 -1.315960e-03  -1.753148e-03  0 
 -1.310600e-03  -2.265471e-03  0 
 -9.630187e-04  -2.292388e-03  0 
 -1.177720e-03  -1.891395e-03  0 
 -1.705907e-03  -2.323636e-03  0 
 -1.212356e-03  -1.494261e-03  0 
 -1.073398e-03  -2.639596e-03  0 
 -1.397806e-03  -1.298927e-03  0 
 -1.159468e-03  -2.295095e-03  0 
 -1.431922e-03  -1.394492e-03  0 
 -8.882414e-04  -1.649625e-03  0 
 -1.004456e-03  -2.704151e-03  0 
 -1.305402e-03  -1.143635e-03  0 
 -9.678019e-04  -1.965781e-03  0 
 -1.691025e-03  -1.957057e-03  0 
 -1.637489e-03  -1.723657e-03  0 
 -9.774045e-04  -2.605295e-03  0 
 -1.443323e-03  -1.657126e-03  0 
 -1.358485e-03  -1.422696e-03  0 
 -1.929475e-03  -2.823034e-03  0 
 -8.399965e-04  -1.424139e-03  0 
 -1.033391e-03  -2.866039e-03  0 
VECTORS displacement_ITER5 FLOAT
 -9.336871e-04  -8.529179e-04  0 
 -5.631252e-04  -1.147956e-03  0 
 -2.545440e-03  -3.578516e-03  0 
 -1.037440e-03  -3.193490e-03  0 
 -1.357151e-03  -1.248571e-03  0 
 -1.363309e-03  -1.308263e-03  0 
 -1.248605e-03  -1.322119e-03  0 
 -1.049317e-03  -1.307707e-03  0 
 -8.146362e-04  -1.267591e-03  0 
 -1.379819e-03  -1.390232e-03  0 
 -1.636023e-03  -1.688248e-03  0 
 -1.856093e-03  -2.001381e-03  0 
 -2.051285e-03  -2.353794e-03  0 
 -2.251575e-03  -2.815138e-03  0 
 -5.647210e-04  -1.521005e-03  0 
 -5.760037e-04  -1.814765e-03  0 
 -5.989111e-04  -2.087527e-03  0 
 -6.521206e-04  -2.362773e-03  0 
 -7.682037e-04  -2.656034e-03  0 
 -1.789601e-03  -3.201305e-03  0 
 -1.376013e-03  -2.930063e-03  0 
 -1.123137e-03  -2.809805e-03  0 
 -9.639374e-04  -2.772196e-03  0 
 -8.782560e-04  -2.842653e-03  0 
 -1.157427e-03  -2.063487e-03  0 
 -1.307851e-03  -1.527204e-03  0 
 -1.460078e-03  -2.657609e-03  0 
 -1.050335e-03  -1.728878e-03  0 
 -9.902962e-04  -2.483975e-03  0 
 -9.451556e-04  -1.497924e-03  0 
 -1.360415e-03  -1.941469e-03  0 
 -1.031042e-03  -2.194956e-03  0 
 -1.118848e-03  -2.550846e-03  0 
 -1.217200e-03  -1.633610e-03  0 
 -1.258471e-03  -1.762781e-03  0 
 -1.253578e-03  -2.281740e-03  0 
 -8.923723e-04  -2.308589e-03  0 
 -1.116130e-03  -1.901188e-03  0 
 -1.654240e-03  -2.342337e-03  0 
 -1.150425e-03  -1.494331e-03  0 
 -1.007979e-03  -2.661238e-03  0 
 -1.340445e-03  -1.307033e-03  0 
 -1.097516e-03  -2.311423e-03  0 
 -1.376118e-03  -1.404059e-03  0 
 -8.146632e-04  -1.653479e-03  0 
 -9.355183e-04  -2.725389e-03  0 
 -1.248682e-03  -1.154459e-03  0 
 -8.978046e-04  -1.977518e-03  0 
 -1.638615e-03  -1.972065e-03  0 
 -1.584041e-03  -1.736282e-03  0 
 -9.064821e-04  -2.624423e-03  0 
 -1.387976e-03  -1.667691e-03  0 
 -1.300195e-03  -1.427329e-03  0 
 -1.877716e-03  -2.841528e-03  0 
 -7.610001e-04  -1.417021e-03  0 
 -9.617397e-04  -2.888047e-03  0 
VECTORS displacement_ITER6 FLOAT
 -9.224338e-04  -9.266635e-04  0 
 -4.935589e-04  -1.163675e-03  0 
 -2.530944e-03  -3.657571e-03  0 
 -9.854136e-04  -3.308777e-03  0 
 -1.344418e-03  -1.311505e-03  0 
 -1.344853e-03  -1.367337e-03  0 
 -1.223850e-03  -1.372201e-03  0 
 -1.017972e-03  -1.350321e-03  0 
 -7.697441e-04  -1.299345e-03  0 
 -1.369082e-03  -1.457831e-03  0 
 -1.627595e-03  -1.758887e-03  0 
 -1.848143e-03  -2.076233e-03  0 
 -2.042852e-03  -2.431786e-03  0 
 -2.240156e-03  -2.894930e-03  0 
 -5.027969e-04  -1.565625e-03  0 
 -5.214883e-04  -1.878809e-03  0 
 -5.457625e-04  -2.162980e-03  0 
 -6.010902e-04  -2.447675e-03  0 
 -7.144567e-04  -2.756535e-03  0 
 -1.775173e-03  -3.286522e-03  0 
 -1.358345e-03  -3.021165e-03  0 
 -1.099220e-03  -2.907261e-03  0 
 -9.325207e-04  -2.875689e-03  0 
 -8.350201e-04  -2.951281e-03  0 
 -1.137613e-03  -2.140741e-03  0 
 -1.292799e-03  -1.594084e-03  0 
 -1.445936e-03  -2.743201e-03  0 
 -1.021359e-03  -1.791071e-03  0 
 -9.597554e-04  -2.573006e-03  0 
 -9.104072e-04  -1.547981e-03  0 
 -1.347210e-03  -2.017904e-03  0 
 -1.002889e-03  -2.274523e-03  0 
 -1.098054e-03  -2.640969e-03  0 
 -1.197010e-03  -1.697830e-03  0 
 -1.242162e-03  -1.834111e-03  0 
 -1.237621e-03  -2.364302e-03  0 
 -8.531515e-04  -2.391153e-03  0 
 -1.092395e-03  -1.971992e-03  0 
 -1.643068e-03  -2.423376e-03  0 
 -1.124630e-03  -1.548531e-03  0 
 -9.800070e-04  -2.757574e-03  0 
 -1.326257e-03  -1.371470e-03  0 
 -1.074763e-03  -2.395024e-03  0 
 -1.365689e-03  -1.472453e-03  0 
 -7.722710e-04  -1.711241e-03  0 
 -8.994035e-04  -2.823958e-03  0 
 -1.238528e-03  -1.221124e-03  0 
 -8.600852e-04  -2.048449e-03  0 
 -1.628712e-03  -2.047936e-03  0 
 -1.574477e-03  -1.808571e-03  0 
 -8.649176e-04  -2.717342e-03  0 
 -1.376081e-03  -1.739670e-03  0 
 -1.281457e-03  -1.487254e-03  0 
 -1.865270e-03  -2.924249e-03  0 
 -7.126890e-04  -1.458879e-03  0 
 -9.168588e-04  -2.992495e-03  0 
VECTORS displacement_ITER7 FLOAT
 -9.333013e-04  -9.651030e-04  0 
 -4.599302e-04  -1.150041e-03  0 
 -2.536503e-03  -3.695918e-03  0 
 -9.675973e-04  -3.376331e-03  0 
 -1.352569e-03  -1.340859e-03  0 
 -1.351440e-03  -1.391249e-03  0 
 -1.226587e-03  -1.391178e-03  0 
 -1.013995e-03  -1.363101e-03  0 
 -7.552542e-04  -1.302029e-03  0 
 -1.378849e-03  -1.489483e-03  0 
 -1.638043e-03  -1.790671e-03  0 
 -1.858795e-03  -2.111402e-03  0 
 -2.053054e-03  -2.468832e-03  0 
 -2.249269e-03  -2.933503e-03  0 
 -4.759537e-04  -1.578256e-03  0 
 -5.004598e-04  -1.906353e-03  0 
 -5.270602e-04  -2.199045e-03  0 
 -5.854624e-04  -2.491256e-03  0 
 -6.978008e-04  -2.810527e-03  0 
 -1.782176e-03  -3.328186e-03  0 
 -1.363016e-03  -3.066957e-03  0 
 -1.099862e-03  -2.957346e-03  0 
 -9.292856e-04  -2.929656e-03  0 
 -8.260741e-04  -3.011632e-03  0 
 -1.142564e-03  -2.178847e-03  0 
 -1.301184e-03  -1.624877e-03  0 
 -1.453069e-03  -2.785431e-03  0 
 -1.020457e-03  -1.818588e-03  0 
 -9.579130e-04  -2.619798e-03  0 
 -9.045612e-04  -1.565619e-03  0 
 -1.355777e-03  -2.054601e-03  0 
 -1.002559e-03  -2.314814e-03  0 
 -1.101166e-03  -2.686784e-03  0 
 -1.201973e-03  -1.726932e-03  0 
 -1.249489e-03  -1.868054e-03  0 
 -1.244157e-03  -2.405043e-03  0 
 -8.454828e-04  -2.433623e-03  0 
 -1.095089e-03  -2.005795e-03  0 
 -1.651997e-03  -2.462374e-03  0 
 -1.125815e-03  -1.570599e-03  0 
 -9.788635e-04  -2.807900e-03  0 
 -1.335461e-03  -1.400218e-03  0 
 -1.077515e-03  -2.437544e-03  0 
 -1.376524e-03  -1.504047e-03  0 
 -7.609556e-04  -1.734236e-03  0 
 -8.946183e-04  -2.876935e-03  0 
 -1.249416e-03  -1.252973e-03  0 
 -8.529369e-04  -2.082346e-03  0 
 -1.638626e-03  -2.083732e-03  0 
 -1.584709e-03  -1.841945e-03  0 
 -8.562229e-04  -2.766534e-03  0 
 -1.385761e-03  -1.773473e-03  0 
 -1.287568e-03  -1.512862e-03  0 
 -1.873219e-03  -2.965112e-03  0 
 -6.966925e-04  -1.468932e-03  0 
 -9.063887e-04  -3.049188e-03  0 
VECTORS displacement_ITER8 FLOAT
 -9.575096e-04  -9.440153e-04  0 
 -4.392008e-04  -1.095570e-03  0 
 -2.552299e-03  -3.694681e-03  0 
 -9.604337e-04  -3.385796e-03  0 
 -1.370711e-03  -1.314828e-03  0 
 -1.366278e-03  -1.361327e-03  0 
 -1.235471e-03  -1.360447e-03  0 
 -1.016244e-03  -1.328499e-03  0 
 -7.502509e-04  -1.260245e-03  0 
 -1.402258e-03  -1.468475e-03  0 
 -1.661218e-03  -1.773063e-03  0 
 -1.881512e-03  -2.098004e-03  0 
 -2.074619e-03  -2.459400e-03  0 
 -2.269065e-03  -2.927578e-03  0 
 -4.611416e-04  -1.545206e-03  0 
 -4.884514e-04  -1.883649e-03  0 
 -5.174121e-04  -2.184769e-03  0 
 -5.772425e-04  -2.484377e-03  0 
 -6.908270e-04  -2.811091e-03  0 
 -1.798704e-03  -3.326445e-03  0 
 -1.376426e-03  -3.067440e-03  0 
 -1.108931e-03  -2.960062e-03  0 
 -9.329878e-04  -2.933565e-03  0 
 -8.249417e-04  -3.017890e-03  0 
 -1.153580e-03  -2.167912e-03  0 
 -1.316172e-03  -1.605694e-03  0 
 -1.468620e-03  -2.782373e-03  0 
 -1.025501e-03  -1.796645e-03  0 
 -9.623429e-04  -2.616001e-03  0 
 -9.053640e-04  -1.534974e-03  0 
 -1.371764e-03  -2.043590e-03  0 
 -1.008279e-03  -2.304880e-03  0 
 -1.111646e-03  -2.684573e-03  0 
 -1.212425e-03  -1.706346e-03  0 
 -1.262990e-03  -1.852928e-03  0 
 -1.257900e-03  -2.398409e-03  0 
 -8.448178e-04  -2.425159e-03  0 
 -1.103397e-03  -1.989910e-03  0 
 -1.669779e-03  -2.455755e-03  0 
 -1.132612e-03  -1.543586e-03  0 
 -9.846640e-04  -2.808507e-03  0 
 -1.352740e-03  -1.376584e-03  0 
 -1.086702e-03  -2.430801e-03  0 
 -1.396913e-03  -1.484978e-03  0 
 -7.571750e-04  -1.707999e-03  0 
 -8.961673e-04  -2.878568e-03  0 
 -1.270069e-03  -1.231082e-03  0 
 -8.527682e-04  -2.066136e-03  0 
 -1.658319e-03  -2.072008e-03  0 
 -1.605603e-03  -1.826539e-03  0 
 -8.543609e-04  -2.764784e-03  0 
 -1.403572e-03  -1.758438e-03  0 
 -1.299658e-03  -1.487932e-03  0 
 -1.890129e-03  -2.962341e-03  0 
 -6.900784e-04  -1.433445e-03  0 
 -9.037465e-04  -3.052355e-03  0 
VECTORS displacement_ITER9 FLOAT
 -9.610272e-04  -9.455356e-04  0 
 -4.278706e-04  -1.075051e-03  0 
 -2.544423e-03  -3.689570e-03  0 
 -9.572648e-04  -3.398721e-03  0 
 -1.373705e-03  -1.313503e-03  0 
 -1.367259e-03  -1.358675e-03  0 
 -1.234457e-03  -1.357427e-03  0 
 -1.014348e-03  -1.323004e-03  0 
 -7.465663e-04  -1.250713e-03  0 
 -1.405783e-03  -1.468523e-03  0 
 -1.664466e-03  -1.773508e-03  0 
 -1.883486e-03  -2.097418e-03  0 
 -2.073959e-03  -2.459048e-03  0 
 -2.266219e-03  -2.926093e-03  0 
 -4.536701e-04  -1.538491e-03  0 
 -4.821140e-04  -1.880915e-03  0 
 -5.120784e-04  -2.185468e-03  0 
 -5.717417e-04  -2.488531e-03  0 
 -6.871748e-04  -2.817958e-03  0 
 -1.797794e-03  -3.324444e-03  0 
 -1.376908e-03  -3.069442e-03  0 
 -1.108966e-03  -2.964621e-03  0 
 -9.320229e-04  -2.940654e-03  0 
 -8.226726e-04  -3.026613e-03  0 
 -1.155283e-03  -2.169799e-03  0 
 -1.317855e-03  -1.606257e-03  0 
 -1.469723e-03  -2.783970e-03  0 
 -1.025438e-03  -1.794602e-03  0 
 -9.624658e-04  -2.620557e-03  0 
 -9.038840e-04  -1.529633e-03  0 
 -1.373635e-03  -2.045710e-03  0 
 -1.008792e-03  -2.307104e-03  0 
 -1.112825e-03  -2.688204e-03  0 
 -1.213279e-03  -1.705694e-03  0 
 -1.264716e-03  -1.854168e-03  0 
 -1.259747e-03  -2.400815e-03  0 
 -8.432999e-04  -2.428119e-03  0 
 -1.104398e-03  -1.990205e-03  0 
 -1.670354e-03  -2.457407e-03  0 
 -1.132212e-03  -1.540485e-03  0 
 -9.846569e-04  -2.814035e-03  0 
 -1.354994e-03  -1.376160e-03  0 
 -1.087991e-03  -2.433809e-03  0 
 -1.400002e-03  -1.485473e-03  0 
 -7.544956e-04  -1.703869e-03  0 
 -8.949210e-04  -2.885653e-03  0 
 -1.273573e-03  -1.230933e-03  0 
 -8.513852e-04  -2.065976e-03  0 
 -1.659907e-03  -2.073403e-03  0 
 -1.608305e-03  -1.827277e-03  0 
 -8.523104e-04  -2.771316e-03  0 
 -1.405788e-03  -1.759959e-03  0 
 -1.300099e-03  -1.486660e-03  0 
 -1.888598e-03  -2.962643e-03  0 
 -6.866808e-04  -1.425460e-03  0 
 -9.019167e-04  -3.060921e-03  0 
VECTORS displacement_ITER10 FLOAT
 -9.635412e-04  -9.421462e-04  0 
 -4.172712e-04  -1.061194e-03  0 
 -2.540302e-03  -3.689373e-03  0 
 -9.558187e-04  -3.406270e-03  0 
 -1.374720e-03  -1.311132e-03  0 
 -1.366979e-03  -1.356497e-03  0 
 -1.233506e-03  -1.354189e-03  0 
 -1.012138e-03  -1.318215e-03  0 
 -7.412099e-04  -1.243194e-03  0 
 -1.408330e-03  -1.467526e-03  0 
 -1.666328e-03  -1.773446e-03  0 
 -1.884868e-03  -2.098129e-03  0 
 -2.074191e-03  -2.460897e-03  0 
 -2.264753e-03  -2.928098e-03  0 
 -4.455557e-04  -1.533668e-03  0 
 -4.756290e-04  -1.879739e-03  0 
 -5.063851e-04  -2.186347e-03  0 
 -5.667662e-04  -2.491924e-03  0 
 -6.837782e-04  -2.822407e-03  0 
 -1.797181e-03  -3.326585e-03  0 
 -1.376232e-03  -3.072978e-03  0 
 -1.107788e-03  -2.968573e-03  0 
 -9.300238e-04  -2.945817e-03  0 
 -8.199399e-04  -3.032755e-03  0 
 -1.154831e-03  -2.171777e-03  0 
 -1.317950e-03  -1.606031e-03  0 
 -1.469584e-03  -2.787018e-03  0 
 -1.023798e-03  -1.793733e-03  0 
 -9.609177e-04  -2.624505e-03  0 
 -9.010538e-04  -1.526209e-03  0 
 -1.373751e-03  -2.047618e-03  0 
 -1.007423e-03  -2.309570e-03  0 
 -1.112003e-03  -2.691841e-03  0 
 -1.212799e-03  -1.705135e-03  0 
 -1.264615e-03  -1.855042e-03  0 
 -1.259553e-03  -2.403563e-03  0 
 -8.406011e-04  -2.431051e-03  0 
 -1.103534e-03  -1.991005e-03  0 
 -1.670341e-03  -2.460269e-03  0 
 -1.131039e-03  -1.538053e-03  0 
 -9.831916e-04  -2.818463e-03  0 
 -1.355261e-03  -1.374965e-03  0 
 -1.087164e-03  -2.436831e-03  0 
 -1.401000e-03  -1.485381e-03  0 
 -7.504603e-04  -1.701672e-03  0 
 -8.927184e-04  -2.890979e-03  0 
 -1.274664e-03  -1.229460e-03  0 
 -8.484990e-04  -2.066667e-03  0 
 -1.660490e-03  -2.075086e-03  0 
 -1.609399e-03  -1.827933e-03  0 
 -8.495496e-04  -2.776269e-03  0 
 -1.406298e-03  -1.760837e-03  0 
 -1.299803e-03  -1.484995e-03  0 
 -1.887818e-03  -2.965421e-03  0 
 -6.814752e-04  -1.419701e-03  0 
 -8.996479e-04  -3.067140e-03  0 
VECTORS displacement_ITER11 FLOAT
 -9.545616e-04  -9.319225e-04  0 
 -4.179069e-04  -1.052591e-03  0 
 -2.528004e-03  -3.669418e-03  0 
 -9.600976e-04  -3.388040e-03  0 
 -1.366973e-03  -1.303380e-03  0 
 -1.360945e-03  -1.350069e-03  0 
 -1.229771e-03  -1.347566e-03  0 
 -1.010229e-03  -1.311888e-03  0 
 -7.406950e-04  -1.235989e-03  0 
 -1.398976e-03  -1.457939e-03  0 
 -1.656410e-03  -1.762626e-03  0 
 -1.874687e-03  -2.086242e-03  0 
 -2.063554e-03  -2.446985e-03  0 
 -2.253385e-03  -2.911572e-03  0 
 -4.465178e-04  -1.524707e-03  0 
 -4.773250e-04  -1.869542e-03  0 
 -5.082439e-04  -2.174202e-03  0 
 -5.690450e-04  -2.477931e-03  0 
 -6.864668e-04  -2.805859e-03  0 
 -1.788267e-03  -3.307377e-03  0 
 -1.369924e-03  -3.054385e-03  0 
 -1.103959e-03  -2.950341e-03  0 
 -9.280247e-04  -2.927735e-03  0 
 -8.202277e-04  -3.014122e-03  0 
 -1.150566e-03  -2.159028e-03  0 
 -1.311782e-03  -1.596083e-03  0 
 -1.462413e-03  -2.770510e-03  0 
 -1.021854e-03  -1.784041e-03  0 
 -9.591377e-04  -2.609633e-03  0 
 -9.001360e-04  -1.518119e-03  0 
 -1.366879e-03  -2.035077e-03  0 
 -1.005229e-03  -2.296688e-03  0 
 -1.107789e-03  -2.675694e-03  0 
 -1.208655e-03  -1.695492e-03  0 
 -1.259105e-03  -1.843801e-03  0 
 -1.253831e-03  -2.389167e-03  0 
 -8.406235e-04  -2.417902e-03  0 
 -1.100457e-03  -1.979778e-03  0 
 -1.661777e-03  -2.445791e-03  0 
 -1.128143e-03  -1.530023e-03  0 
 -9.806525e-04  -2.801563e-03  0 
 -1.348111e-03  -1.366438e-03  0 
 -1.083594e-03  -2.422663e-03  0 
 -1.392413e-03  -1.475517e-03  0 
 -7.506050e-04  -1.692547e-03  0 
 -8.919320e-04  -2.874358e-03  0 
 -1.266063e-03  -1.220429e-03  0 
 -8.480927e-04  -2.055542e-03  0 
 -1.651594e-03  -2.062683e-03  0 
 -1.600210e-03  -1.816737e-03  0 
 -8.502943e-04  -2.761118e-03  0 
 -1.398722e-03  -1.749635e-03  0 
 -1.294907e-03  -1.476755e-03  0 
 -1.878288e-03  -2.948333e-03  0 
 -6.817262e-04  -1.411327e-03  0 
 -9.011998e-04  -3.050551e-03  0 
VECTORS displacement_ITER12 FLOAT
 -9.514419e-04  -9.333273e-04  0 
 -4.165052e-04  -1.057248e-03  0 
 -2.522210e-03  -3.667241e-03  0 
 -9.626998e-04  -3.386217e-03  0 
 -1.363795e-03  -1.306607e-03  0 
 -1.358213e-03  -1.354034e-03  0 
 -1.227545e-03  -1.351595e-03  0 
 -1.008703e-03  -1.316133e-03  0 
 -7.397284e-04  -1.240160e-03  0 
 -1.395413e-03  -1.460577e-03  0 
 -1.652257e-03  -1.765114e-03  0 
 -1.869897e-03  -2.088309e-03  0 
 -2.058455e-03  -2.447966e-03  0 
 -2.247924e-03  -2.911336e-03  0 
 -4.457603e-04  -1.528291e-03  0 
 -4.771280e-04  -1.872676e-03  0 
 -5.085137e-04  -2.176583e-03  0 
 -5.697967e-04  -2.478996e-03  0 
 -6.874958e-04  -2.805714e-03  0 
 -1.784088e-03  -3.306230e-03  0 
 -1.366899e-03  -3.053848e-03  0 
 -1.101348e-03  -2.949687e-03  0 
 -9.264036e-04  -2.926815e-03  0 
 -8.200286e-04  -3.012968e-03  0 
 -1.148127e-03  -2.160911e-03  0 
 -1.308750e-03  -1.599065e-03  0 
 -1.459039e-03  -2.770617e-03  0 
 -1.020286e-03  -1.787367e-03  0 
 -9.576269e-04  -2.610661e-03  0 
 -8.989054e-04  -1.522017e-03  0 
 -1.363532e-03  -2.036909e-03  0 
 -1.003533e-03  -2.298672e-03  0 
 -1.105153e-03  -2.675883e-03  0 
 -1.206345e-03  -1.698669e-03  0 
 -1.256278e-03  -1.846286e-03  0 
 -1.250827e-03  -2.390128e-03  0 
 -8.399419e-04  -2.419756e-03  0 
 -1.098473e-03  -1.982414e-03  0 
 -1.657839e-03  -2.446689e-03  0 
 -1.126256e-03  -1.533754e-03  0 
 -9.786901e-04  -2.801474e-03  0 
 -1.344853e-03  -1.369767e-03  0 
 -1.081332e-03  -2.423945e-03  0 
 -1.388577e-03  -1.478438e-03  0 
 -7.496321e-04  -1.696255e-03  0 
 -8.910721e-04  -2.874362e-03  0 
 -1.262380e-03  -1.223321e-03  0 
 -8.470928e-04  -2.058453e-03  0 
 -1.647520e-03  -2.064589e-03  0 
 -1.596079e-03  -1.819263e-03  0 
 -8.502084e-04  -2.761783e-03  0 
 -1.395155e-03  -1.752112e-03  0 
 -1.292366e-03  -1.480367e-03  0 
 -1.873901e-03  -2.947913e-03  0 
 -6.805927e-04  -1.415512e-03  0 
 -9.016128e-04  -3.050502e-03  0 
VECTORS displacement_ITER13 FLOAT
 -9.489638e-04  -9.395476e-04  0 
 -4.217420e-04  -1.068724e-03  0 
 -2.519355e-03  -3.668735e-03  0 
 -9.683280e-04  -3.385175e-03  0 
 -1.362133e-03  -1.313948e-03  0 
 -1.357527e-03  -1.362084e-03  0 
 -1.227904e-03  -1.360249e-03  0 
 -1.010313e-03  -1.325093e-03  0 
 -7.429092e-04  -1.249861e-03  0 
 -1.392723e-03  -1.466754e-03  0 
 -1.649416e-03  -1.770553e-03  0 
 -1.866768e-03  -2.092583e-03  0 
 -2.055400e-03  -2.451193e-03  0 
 -2.244936e-03  -2.913916e-03  0 
 -4.506038e-04  -1.536368e-03  0 
 -4.817946e-04  -1.879014e-03  0 
 -5.132001e-04  -2.181301e-03  0 
 -5.745774e-04  -2.481791e-03  0 
 -6.924735e-04  -2.806945e-03  0 
 -1.782130e-03  -3.307675e-03  0 
 -1.365786e-03  -3.054918e-03  0 
 -1.101460e-03  -2.950576e-03  0 
 -9.280620e-04  -2.927136e-03  0 
 -8.232640e-04  -3.012420e-03  0 
 -1.148026e-03  -2.165119e-03  0 
 -1.307748e-03  -1.605116e-03  0 
 -1.457447e-03  -2.772693e-03  0 
 -1.021683e-03  -1.793932e-03  0 
 -9.591148e-04  -2.613265e-03  0 
 -9.010722e-04  -1.530043e-03  0 
 -1.362110e-03  -2.041087e-03  0 
 -1.004713e-03  -2.302731e-03  0 
 -1.105027e-03  -2.677934e-03  0 
 -1.206413e-03  -1.705015e-03  0 
 -1.255580e-03  -1.851452e-03  0 
 -1.249914e-03  -2.393250e-03  0 
 -8.427544e-04  -2.423448e-03  0 
 -1.099084e-03  -1.987725e-03  0 
 -1.655634e-03  -2.449674e-03  0 
 -1.127158e-03  -1.541417e-03  0 
 -9.797276e-04  -2.802853e-03  0 
 -1.343491e-03  -1.376622e-03  0 
 -1.081624e-03  -2.427193e-03  0 
 -1.386413e-03  -1.484331e-03  0 
 -7.526786e-04  -1.703459e-03  0 
 -8.934239e-04  -2.875440e-03  0 
 -1.260247e-03  -1.229877e-03  0 
 -8.496211e-04  -2.063897e-03  0 
 -1.645169e-03  -2.068671e-03  0 
 -1.593630e-03  -1.824281e-03  0 
 -8.536359e-04  -2.763819e-03  0 
 -1.393438e-03  -1.757180e-03  0 
 -1.292019e-03  -1.487671e-03  0 
 -1.871620e-03  -2.950036e-03  0 
 -6.839939e-04  -1.424291e-03  0 
 -9.054799e-04  -3.051229e-03  0 
VECTORS displacement_ITER14 FLOAT
 -9.459822e-04  -9.396722e-04  0 
 -4.214785e-04  -1.073629e-03  0 
 -2.516737e-03  -3.668823e-03  0 
 -9.681286e-04  -3.382454e-03  0 
 -1.358973e-03  -1.314727e-03  0 
 -1.354588e-03  -1.363387e-03  0 
 -1.225498e-03  -1.362239e-03  0 
 -1.008381e-03  -1.327370e-03  0 
 -7.416092e-04  -1.252885e-03  0 
 -1.389548e-03  -1.467316e-03  0 
 -1.646171e-03  -1.771305e-03  0 
 -1.863299e-03  -2.093135e-03  0 
 -2.052042e-03  -2.451442e-03  0 
 -2.241876e-03  -2.913967e-03  0 
 -4.501771e-04  -1.538839e-03  0 
 -4.811201e-04  -1.880294e-03  0 
 -5.124437e-04  -2.181702e-03  0 
 -5.739032e-04  -2.481542e-03  0 
 -6.919392e-04  -2.806004e-03  0 
 -1.779077e-03  -3.307534e-03  0 
 -1.362862e-03  -3.054343e-03  0 
 -1.099003e-03  -2.949698e-03  0 
 -9.261574e-04  -2.925789e-03  0 
 -8.218710e-04  -3.010695e-03  0 
 -1.145239e-03  -2.165450e-03  0 
 -1.304666e-03  -1.605975e-03  0 
 -1.454349e-03  -2.772450e-03  0 
 -1.019437e-03  -1.795270e-03  0 
 -9.569793e-04  -2.612871e-03  0 
 -8.991843e-04  -1.532157e-03  0 
 -1.359020e-03  -2.041423e-03  0 
 -1.002396e-03  -2.302978e-03  0 
 -1.102350e-03  -2.677519e-03  0 
 -1.203684e-03  -1.706045e-03  0 
 -1.252617e-03  -1.852067e-03  0 
 -1.246947e-03  -2.393263e-03  0 
 -8.411642e-04  -2.423501e-03  0 
 -1.096516e-03  -1.988466e-03  0 
 -1.652469e-03  -2.449655e-03  0 
 -1.124856e-03  -1.543099e-03  0 
 -9.775178e-04  -2.802013e-03  0 
 -1.340306e-03  -1.377600e-03  0 
 -1.079012e-03  -2.427158e-03  0 
 -1.383073e-03  -1.485116e-03  0 
 -7.511040e-04  -1.705242e-03  0 
 -8.916838e-04  -2.874344e-03  0 
 -1.256971e-03  -1.230621e-03  0 
 -8.478367e-04  -2.064723e-03  0 
 -1.641895e-03  -2.069082e-03  0 
 -1.590311e-03  -1.824996e-03  0 
 -8.522924e-04  -2.763157e-03  0 
 -1.390225e-03  -1.757812e-03  0 
 -1.289158e-03  -1.488941e-03  0 
 -1.868584e-03  -2.949856e-03  0 
 -6.826108e-04  -1.427120e-03  0 
 -9.042536e-04  -3.049906e-03  0 
VECTORS displacement_ITER15 FLOAT
 -9.499612e-04  -9.410666e-04  0 