# vtk DataFile Version 3.1
this is an vtk file created by FEMAC
ASCII
DATASET UNSTRUCTURED_GRID
POINTS 60 FLOAT
2.000000 5.000000 0.000000
2.000000 6.000000 0.000000
3.000000 5.000000 0.000000
3.000000 6.000000 0.000000
2.000000 5.166667 0.000000
2.000000 5.333333 0.000000
2.000000 5.500000 0.000000
2.000000 5.666667 0.000000
2.000000 5.833333 0.000000
2.166667 5.000000 0.000000
2.333333 5.000000 0.000000
2.500000 5.000000 0.000000
2.666667 5.000000 0.000000
2.833333 5.000000 0.000000
2.166667 6.000000 0.000000
2.333333 6.000000 0.000000
2.500000 6.000000 0.000000
2.666667 6.000000 0.000000
2.833333 6.000000 0.000000
3.000000 5.166667 0.000000
3.000000 5.333333 0.000000
3.000000 5.500000 0.000000
3.000000 5.666667 0.000000
3.000000 5.833333 0.000000
2.613228 5.549603 0.000000
2.398223 5.353651 0.000000
2.724591 5.693117 0.000000
2.704494 5.276546 0.000000
2.767554 5.865918 0.000000
2.759088 5.131628 0.000000
2.344099 5.519490 0.000000
2.767522 5.501245 0.000000
2.519576 5.702841 0.000000
2.534075 5.300471 0.000000
2.460008 5.590314 0.000000
2.513802 5.433983 0.000000
2.583568 5.838150 0.000000
2.581911 5.153052 0.000000
2.884224 5.763208 0.000000
2.865916 5.255897 0.000000
2.224137 5.842504 0.000000
2.262220 5.373387 0.000000
2.217359 5.658551 0.000000
2.661897 5.412518 0.000000
2.206588 5.510700 0.000000
2.110924 5.583696 0.000000
2.122989 5.419394 0.000000
2.378673 5.189552 0.000000
2.411659 5.854858 0.000000
2.780369 5.374342 0.000000
2.879726 5.591624 0.000000
2.159112 5.236566 0.000000
2.897022 5.892492 0.000000
2.891774 5.106594 0.000000
2.109067 5.749262 0.000000
2.882255 5.426074 0.000000
2.362806 5.694760 0.000000
2.099974 5.885020 0.000000
2.224224 5.101890 0.000000
2.110000 5.101025 0.000000
CELLS 94 376 
3 13 29 12
3 28 18 17
3 24 31 26
3 26 32 24
3 34 24 32
3 35 25 33
3 25 35 30
3 17 36 28
3 36 26 28
3 37 12 29
3 27 37 29
3 38 22 23
3 40 15 14
3 24 43 31
3 27 43 33
3 34 35 24
3 34 30 35
3 35 43 24
3 35 33 43
3 16 36 17
3 32 26 36
3 37 11 12
3 27 33 37
3 20 39 19
3 29 39 27
3 25 30 41
3 26 38 28
3 42 44 30
3 44 41 30
3 6 45  7
3 42 45 44
3 46  6  5
3 46 41 44
3 47 25 41
3 49 31 43
3 22 50 21
3 50 22 38
3 18 52  3
3 52 23  3
3 53 13  2
3 19 53  2
3 4 51  5
3 49 27 39
3 43 27 49
3 51 46  5
3 41 46 51
3 50 26 31
3 38 26 50
3 46 45  6
3 44 45 46
3 41 51 47
3 23 52 38
3 52 28 38
3 28 52 18
3 53 19 39
3 29 53 39
3 53 29 13
3 11 47 10
3 47 33 25
3 47 11 37
3 37 33 47
3 15 40 48
3 48 16 15
3 16 48 36
3 32 36 48
3 54  8  7
3 54 42 40
3 21 55 20
3 49 55 31
3 42 56 40
3 56 48 40
3 8 57  1
3 14 57 40
3 57 14  1
3 45 54  7
3 45 42 54
3 55 39 20
3 49 39 55
3 54 57  8
3 54 40 57
3 50 55 21
3 50 31 55
3 34 56 30
3 42 30 56
3 56 34 32
3 32 48 56
3 58  9 10
3 58 47 51
3 47 58 10
3 59  4  0
3 9 59  0
3 59  9 58
3 51 59 58
3 59 51  4
CELL_TYPES 94
5 5 5 5 5 5 5 5 5 5 5 5 5 5 5 5 5 5 5 5 5 5 5 5 5 5 5 5 5 5 5 5 5 5 5 5 5 5 5 5 5 5 5 5 5 5 5 5 5 5 5 5 5 5 5 5 5 5 5 5 5 5 5 5 5 5 5 5 5 5 5 5 5 5 5 5 5 5 5 5 5 5 5 5 5 5 5 5 5 5 5 5 5 5 
POINT_DATA 60
VECTORS displacement_ITER1 FLOAT
 3.667822e-03  -1.071183e-02  0 
 1.133494e-02  -1.412678e-02  0 
 1.255729e-02  -1.376312e-02  0 
 1.545933e-02  -1.647688e-02  0 
 6.657782e-03  -1.295741e-02  0 
 8.359346e-03  -1.405236e-02  0 
 8.481347e-03  -1.387524e-02  0 
 9.202855e-03  -1.299801e-02  0 
 1.016294e-02  -1.314938e-02  0 
 8.194043e-03  -9.782682e-03  0 
 9.551905e-03  -1.047159e-02  0 
 9.231826e-03  -1.100869e-02  0 
 9.256624e-03  -1.117759e-02  0 
 1.085961e-02  -1.273404e-02  0 
 1.208156e-02  -1.557356e-02  0 
 1.251828e-02  -1.683420e-02  0 
 1.289723e-02  -1.749054e-02  0 
 1.339442e-02  -1.759679e-02  0 
 1.413194e-02  -1.722981e-02  0 
 1.267954e-02  -1.607266e-02  0 
 1.297467e-02  -1.617349e-02  0 
 1.410031e-02  -1.559111e-02  0 
 1.473646e-02  -1.520476e-02  0 
 1.515321e-02  -1.554897e-02  0 
 1.235549e-02  -1.523216e-02  0 
 1.000587e-02  -1.329753e-02  0 
 1.347970e-02  -1.607231e-02  0 
 1.180020e-02  -1.383774e-02  0 
 1.387893e-02  -1.675533e-02  0 
 1.110206e-02  -1.345615e-02  0 
 1.013493e-02  -1.451873e-02  0 
 1.322652e-02  -1.512316e-02  0 
 1.212925e-02  -1.617064e-02  0 
 1.084029e-02  -1.300073e-02  0 
 1.130010e-02  -1.528856e-02  0 
 1.118431e-02  -1.414304e-02  0 
 1.289659e-02  -1.697548e-02  0 
 1.022019e-02  -1.203335e-02  0 
 1.443891e-02  -1.585234e-02  0 
 1.243339e-02  -1.512967e-02  0 
 1.120408e-02  -1.556824e-02  0 
 9.040553e-03  -1.361006e-02  0 
 9.981969e-03  -1.471445e-02  0 
 1.225642e-02  -1.441884e-02  0 
 9.290350e-03  -1.401069e-02  0 
 9.034348e-03  -1.394021e-02  0 
 8.706518e-03  -1.372361e-02  0 
 9.490290e-03  -1.176565e-02  0 
 1.211615e-02  -1.670518e-02  0 
 1.275956e-02  -1.476005e-02  0 
 1.411057e-02  -1.544558e-02  0 
 8.200987e-03  -1.344796e-02  0 
 1.461853e-02  -1.628351e-02  0 
 1.174485e-02  -1.443208e-02  0 
 1.004662e-02  -1.415349e-02  0 
 1.339008e-02  -1.525147e-02  0 
 1.108285e-02  -1.567208e-02  0 
 1.102103e-02  -1.451886e-02  0 
 8.510738e-03  -1.166700e-02  0 
 6.990614e-03  -1.258515e-02  0 
VECTORS displacement_ITER2 FLOAT
 3.451933e-03  -9.160178e-03  0 
 9.171719e-03  -1.036148e-02  0 
 8.591612e-03  -1.016605e-02  0 
 1.180497e-02  -1.215903e-02  0 
 4.541941e-03  -9.611032e-03  0 
 5.264209e-03  -9.864936e-03  0 
 6.247456e-03  -9.651300e-03  0 
 6.840950e-03  -9.868106e-03  0 
 7.995622e-03  -1.027483e-02  0 
 5.825130e-03  -6.926065e-03  0 
 6.081223e-03  -7.585984e-03  0 
 6.213284e-03  -9.084049e-03  0 
 6.653393e-03  -9.789754e-03  0 
 7.842827e-03  -1.086267e-02  0 
 9.421871e-03  -1.184187e-02  0 
 9.642363e-03  -1.283109e-02  0 
 9.905475e-03  -1.334521e-02  0 
 1.031923e-02  -1.354656e-02  0 
 1.093428e-02  -1.339231e-02  0 
 8.633764e-03  -1.164587e-02  0 
 9.471925e-03  -1.203118e-02  0 
 9.857610e-03  -1.211829e-02  0 
 1.056384e-02  -1.226721e-02  0 
 1.177686e-02  -1.226905e-02  0 
 9.015446e-03  -1.177332e-02  0 
 7.214199e-03  -1.035932e-02  0 
 1.000753e-02  -1.227958e-02  0 
 8.305078e-03  -1.108735e-02  0 
 1.066126e-02  -1.288237e-02  0 
 7.831551e-03  -1.096524e-02  0 
 7.488235e-03  -1.123470e-02  0 
 9.398357e-03  -1.186393e-02  0 
 9.115163e-03  -1.238354e-02  0 
 7.796594e-03  -1.040889e-02  0 
 8.384648e-03  -1.180369e-02  0 
 8.109093e-03  -1.107337e-02  0 
 9.806566e-03  -1.295195e-02  0 
 7.273556e-03  -1.004050e-02  0 
 1.090337e-02  -1.223050e-02  0 
 8.679268e-03  -1.148089e-02  0 
 8.607360e-03  -1.192302e-02  0 
 6.448761e-03  -1.038390e-02  0 
 7.671965e-03  -1.123529e-02  0 
 8.698771e-03  -1.134925e-02  0 
 6.826670e-03  -1.069879e-02  0 
 6.876564e-03  -1.035584e-02  0 
 6.059365e-03  -1.020045e-02  0 
 6.765314e-03  -9.096109e-03  0 
 9.257807e-03  -1.274388e-02  0 
 8.916514e-03  -1.156167e-02  0 
 1.000455e-02  -1.209427e-02  0 
 5.411700e-03  -9.610896e-03  0 
 1.141755e-02  -1.263142e-02  0 
 8.061684e-03  -1.115505e-02  0 
 7.736789e-03  -1.093312e-02  0 
 9.435144e-03  -1.196449e-02  0 
 8.426513e-03  -1.199318e-02  0 
 8.544769e-03  -1.113853e-02  0 
 5.715835e-03  -8.163360e-03  0 
 4.719475e-03  -9.083878e-03  0 
VECTORS displacement_ITER3 FLOAT
 3.404229e-03  -7.688535e-03  0 
 7.586823e-03  -8.354963e-03  0 
 6.931212e-03  -9.633811e-03  0 
 1.013401e-02  -9.905147e-03  0 
 3.934971e-03  -8.055258e-03  0 
 4.584095e-03  -7.984132e-03  0 
 5.350079e-03  -8.094902e-03  0 
 6.113491e-03  -8.387550e-03  0 
 6.553458e-03  -8.289103e-03  0 
 4.719984e-03  -6.368281e-03  0 
 5.506378e-03  -6.790619e-03  0 
 5.737660e-03  -7.338244e-03  0 
 5.769250e-03  -7.710821e-03  0 
 6.456704e-03  -8.846213e-03  0 
 7.860035e-03  -9.771011e-03  0 
 8.096287e-03  -1.062062e-02  0 
 8.333719e-03  -1.106377e-02  0 
 8.697514e-03  -1.120563e-02  0 
 9.223323e-03  -1.097217e-02  0 
 7.345325e-03  -9.337753e-03  0 
 7.903156e-03  -9.551111e-03  0 
 8.584011e-03  -9.562375e-03  0 
 9.283710e-03  -9.810738e-03  0 
 9.808403e-03  -1.002679e-02  0 
 7.625403e-03  -9.667290e-03  0 
 6.146653e-03  -8.674507e-03  0 
 8.468359e-03  -1.009924e-02  0 
 7.159022e-03  -8.929007e-03  0 
 9.025721e-03  -1.060259e-02  0 
 6.844270e-03  -8.802869e-03  0 
 6.406626e-03  -9.318321e-03  0 
 8.028755e-03  -9.544050e-03  0 
 7.692378e-03  -1.020388e-02  0 
 6.613522e-03  -8.580662e-03  0 
 7.099126e-03  -9.724946e-03  0 
 6.885609e-03  -9.155776e-03  0 
 8.277895e-03  -1.069903e-02  0 
 6.319137e-03  -8.020727e-03  0 
 9.244223e-03  -1.006800e-02  0 
 7.426780e-03  -9.275158e-03  0 
 7.192804e-03  -9.787394e-03  0 
 5.568572e-03  -8.730342e-03  0 
 6.487635e-03  -9.263302e-03  0 
 7.427854e-03  -9.245853e-03  0 
 5.946558e-03  -8.953190e-03  0 
 6.000877e-03  -8.760029e-03  0 
 5.293155e-03  -8.496099e-03  0 
 5.709613e-03  -7.785851e-03  0 
 7.780824e-03  -1.053428e-02  0 
 7.670023e-03  -9.274721e-03  0 
 8.653788e-03  -9.709810e-03  0 
 4.683228e-03  -8.153728e-03  0 
 9.625682e-03  -1.026310e-02  0 
 7.070345e-03  -9.245847e-03  0 
 6.503225e-03  -8.910978e-03  0 
 8.075581e-03  -9.455353e-03  0 
 7.094237e-03  -9.882340e-03  0 
 7.066258e-03  -9.100509e-03  0 
 4.956668e-03  -7.317556e-03  0 
 4.194611e-03  -7.655918e-03  0 
VECTORS displacement_ITER4 FLOAT
 3.359516e-03  -6.681628e-03  0 
 6.777263e-03  -7.556933e-03  0 
 6.070117e-03  -9.039021e-03  0 
 9.403640e-03  -9.325218e-03  0 
 3.798376e-03  -7.399834e-03  0 
 4.353905e-03  -7.436639e-03  0 
 4.873182e-03  -7.609263e-03  0 
 5.619342e-03  -7.593497e-03  0 
 6.156389e-03  -7.557830e-03  0 
 4.205780e-03  -6.635807e-03  0 
 4.973449e-03  -6.866681e-03  0 
 5.108382e-03  -6.881148e-03  0 
 5.023670e-03  -7.107083e-03  0 
 5.459896e-03  -8.007347e-03  0 
 7.199897e-03  -8.875993e-03  0 
 7.423524e-03  -9.723273e-03  0 
 7.604898e-03  -1.016112e-02  0 
 7.882809e-03  -1.023433e-02  0 
 8.360053e-03  -9.977559e-03  0 
 6.635164e-03  -8.783088e-03  0 
 7.179099e-03  -9.009170e-03  0 
 7.936426e-03  -8.988547e-03  0 
 8.416625e-03  -8.865753e-03  0 
 8.764903e-03  -9.012467e-03  0 
 6.972437e-03  -8.964047e-03  0 
 5.576467e-03  -8.055110e-03  0 
 7.748165e-03  -9.371050e-03  0 
 6.437991e-03  -8.241824e-03  0 
 8.154113e-03  -9.694405e-03  0 
 6.046832e-03  -8.059218e-03  0 
 5.863321e-03  -8.578732e-03  0 
 7.365267e-03  -8.863868e-03  0 
 7.032929e-03  -9.427510e-03  0 
 5.926344e-03  -7.967314e-03  0 
 6.493071e-03  -8.973735e-03  0 
 6.256946e-03  -8.475969e-03  0 
 7.552768e-03  -9.870054e-03  0 
 5.606848e-03  -7.413100e-03  0 
 8.342486e-03  -9.204679e-03  0 
 6.712474e-03  -8.664617e-03  0 
 6.594670e-03  -8.933237e-03  0 
 5.125410e-03  -8.032505e-03  0 
 5.930369e-03  -8.553336e-03  0 
 6.755244e-03  -8.571790e-03  0 
 5.435194e-03  -8.231526e-03  0 
 5.435948e-03  -8.088976e-03  0 
 4.903987e-03  -7.853897e-03  0 
 5.089961e-03  -7.398529e-03  0 
 7.115169e-03  -9.696956e-03  0 
 6.990609e-03  -8.620060e-03  0 
 7.976207e-03  -9.019324e-03  0 
 4.441384e-03  -7.631283e-03  0 
 8.636381e-03  -9.303095e-03  0 
 6.287647e-03  -8.591676e-03  0 
 6.022740e-03  -8.164299e-03  0 
 7.401246e-03  -8.815480e-03  0 
 6.475099e-03  -9.108644e-03  0 
 6.501852e-03  -8.206426e-03  0 
 4.573693e-03  -7.215863e-03  0 
 4.089212e-03  -7.190668e-03  0 
VECTORS displacement_ITER5 FLOAT
 3.442268e-03  -6.528304e-03  0 
 6.586477e-03  -7.103367e-03  0 
 5.520800e-03  -8.407602e-03  0 
 9.125551e-03  -9.099789e-03  0 
 3.561708e-03  -7.011379e-03  0 
 4.027205e-03  -7.221822e-03  0 
 4.694537e-03  -7.354987e-03  0 
 5.317208e-03  -7.349268e-03  0 
 6.041124e-03  -7.316093e-03  0 
 4.085083e-03  -6.422038e-03  0 
 4.388438e-03  -6.575875e-03  0 
 4.534501e-03  -6.849766e-03  0 
 4.637770e-03  -7.290711e-03  0 
 4.968896e-03  -7.974238e-03  0 
 7.002747e-03  -8.531942e-03  0 
 7.203684e-03  -9.426097e-03  0 
 7.390275e-03  -9.894727e-03  0 
 7.684488e-03  -1.003019e-02  0 
 8.160386e-03  -9.840542e-03  0 
 6.135627e-03  -8.731488e-03  0 
 6.775017e-03  -8.802760e-03  0 
 7.393379e-03  -8.975273e-03  0 
 7.968952e-03  -8.957005e-03  0 
 8.549424e-03  -8.968978e-03  0 
 6.617176e-03  -8.741991e-03  0 
 5.284285e-03  -7.837350e-03  0 
 7.422586e-03  -9.150108e-03  0 
 5.983146e-03  -8.165083e-03  0 
 7.923615e-03  -9.519336e-03  0 
 5.518109e-03  -7.987753e-03  0 
 5.579857e-03  -8.325734e-03  0 
 6.916089e-03  -8.750071e-03  0 
 6.742906e-03  -9.161737e-03  0 
 5.578864e-03  -7.845024e-03  0 
 6.189738e-03  -8.720110e-03  0 
 5.922832e-03  -8.272208e-03  0 
 7.294946e-03  -9.612266e-03  0 
 5.191750e-03  -7.452252e-03  0 
 8.062427e-03  -9.082398e-03  0 
 6.271509e-03  -8.530338e-03  0 
 6.346578e-03  -8.638585e-03  0 
 4.867274e-03  -7.764746e-03  0 
 5.693254e-03  -8.292339e-03  0 
 6.336451e-03  -8.430507e-03  0 
 5.155624e-03  -7.978110e-03  0 
 5.187776e-03  -7.793414e-03  0 
 4.631456e-03  -7.630536e-03  0 
 4.787930e-03  -7.180082e-03  0 
 6.863691e-03  -9.409695e-03  0 
 6.512434e-03  -8.541074e-03  0 
 7.503730e-03  -8.944842e-03  0 
 4.171414e-03  -7.264442e-03  0 
 8.435771e-03  -9.196691e-03  0 
 5.667531e-03  -8.405463e-03  0 
 5.797488e-03  -7.939755e-03  0 
 6.897689e-03  -8.760921e-03  0 
 6.207802e-03  -8.827292e-03  0 
 6.296132e-03  -7.869791e-03  0 
 4.235294e-03  -6.799477e-03  0 
 3.859110e-03  -6.837436e-03  0 
VECTORS displacement_ITER6 FLOAT
 3.502698e-03  -6.593614e-03  0 
 6.491527e-03  -7.023566e-03  0 
 5.022524e-03  -8.232887e-03  0 
 8.833711e-03  -8.808322e-03  0 
 3.501018e-03  -6.761573e-03  0 
 3.998099e-03  -7.077563e-03  0 
 4.653930e-03  -7.189664e-03  0 
 5.215171e-03  -7.212551e-03  0 
 5.887266e-03  -7.127067e-03  0 
 4.058666e-03  -6.298924e-03  0 
 4.197711e-03  -6.396548e-03  0 
 4.374989e-03  -6.790479e-03  0 
 4.589255e-03  -7.186288e-03  0 
 4.802375e-03  -7.656327e-03  0 
 6.855633e-03  -8.339837e-03  0 
 7.038635e-03  -9.192019e-03  0 
 7.222666e-03  -9.642420e-03  0 
 7.516242e-03  -9.794438e-03  0 
 7.972097e-03  -9.632009e-03  0 
 5.907824e-03  -8.429742e-03  0 
 6.566795e-03  -8.571405e-03  0 
 7.143053e-03  -8.727112e-03  0 
 7.740266e-03  -8.801902e-03  0 
 8.383079e-03  -8.821916e-03  0 
 6.431557e-03  -8.512104e-03  0 
 5.161122e-03  -7.660226e-03  0 
 7.224575e-03  -8.912259e-03  0 
 5.757856e-03  -7.947208e-03  0 
 7.747079e-03  -9.303522e-03  0 
 5.302250e-03  -7.720766e-03  0 
 5.454033e-03  -8.111976e-03  0 
 6.698512e-03  -8.536493e-03  0 
 6.578322e-03  -8.920442e-03  0 
 5.415882e-03  -7.677681e-03  0 
 6.038249e-03  -8.493428e-03  0 
 5.757544e-03  -8.065759e-03  0 
 7.122756e-03  -9.363705e-03  0 
 5.026169e-03  -7.356066e-03  0 
 7.871559e-03  -8.882124e-03  0 
 6.040901e-03  -8.248540e-03  0 
 6.213803e-03  -8.444029e-03  0 
 4.783423e-03  -7.590219e-03  0 
 5.571075e-03  -8.077463e-03  0 
 6.127827e-03  -8.209918e-03  0 
 5.064029e-03  -7.788370e-03  0 
 5.106127e-03  -7.607114e-03  0 
 4.570253e-03  -7.460940e-03  0 
 4.686777e-03  -7.050409e-03  0 
 6.707971e-03  -9.168506e-03  0 
 6.284567e-03  -8.312052e-03  0 
 7.261220e-03  -8.729936e-03  0 
 4.112036e-03  -7.093662e-03  0 
 8.263557e-03  -9.019806e-03  0 
 5.430783e-03  -8.033926e-03  0 
 5.658058e-03  -7.751546e-03  0 
 6.678028e-03  -8.541323e-03  0 
 6.069418e-03  -8.602044e-03  0 
 6.176408e-03  -7.718713e-03  0 
 4.110163e-03  -6.608197e-03  0 
 3.753028e-03  -6.679731e-03  0 
VECTORS displacement_ITER7 FLOAT
 3.472708e-03  -6.485772e-03  0 
 6.463398e-03  -7.162968e-03  0 
 4.849356e-03  -8.163002e-03  0 
 8.797694e-03  -8.748915e-03  0 
 3.543738e-03  -6.735317e-03  0 
 4.026926e-03  -7.023045e-03  0 
 4.554821e-03  -7.094182e-03  0 
 5.201897e-03  -7.064332e-03  0 
 5.856835e-03  -7.083106e-03  0 
 4.038388e-03  -6.303153e-03  0 
 4.250678e-03  -6.412542e-03  0 
 4.414227e-03  -6.757198e-03  0 
 4.600023e-03  -7.109453e-03  0 
 4.742605e-03  -7.529956e-03  0 
 6.821534e-03  -8.300892e-03  0 
 7.004373e-03  -9.103586e-03  0 
 7.179616e-03  -9.543991e-03  0 
 7.462065e-03  -9.690296e-03  0 
 7.911156e-03  -9.524866e-03  0 
 5.817363e-03  -8.384022e-03  0 
 6.493794e-03  -8.535099e-03  0 
 7.119746e-03  -8.595037e-03  0 
 7.705750e-03  -8.693746e-03  0 
 8.261205e-03  -8.755262e-03  0 
 6.386739e-03  -8.440318e-03  0 
 5.112091e-03  -7.585682e-03  0 
 7.165161e-03  -8.841285e-03  0 
 5.700942e-03  -7.828874e-03  0 
 7.683108e-03  -9.210214e-03  0 
 5.231589e-03  -7.595720e-03  0 
 5.411845e-03  -8.036295e-03  0 
 6.663820e-03  -8.445504e-03  0 
 6.536281e-03  -8.848031e-03  0 
 5.363249e-03  -7.589361e-03  0 
 6.000270e-03  -8.424986e-03  0 
 5.708051e-03  -7.987831e-03  0 
 7.078523e-03  -9.278047e-03  0 
 4.989065e-03  -7.268521e-03  0 
 7.790315e-03  -8.813845e-03  0 
 5.969802e-03  -8.149712e-03  0 
 6.220178e-03  -8.385118e-03  0 
 4.740010e-03  -7.505253e-03  0 
 5.535856e-03  -8.017044e-03  0 
 6.082861e-03  -8.113563e-03  0 
 5.017105e-03  -7.702247e-03  0 
 5.043998e-03  -7.533713e-03  0 
 4.525334e-03  -7.357024e-03  0 
 4.663308e-03  -7.010091e-03  0 
 6.682077e-03  -9.088305e-03  0 
 6.246562e-03  -8.201715e-03  0 
 7.222952e-03  -8.633242e-03  0 
 4.126830e-03  -7.058633e-03  0 
 8.179616e-03  -8.919660e-03  0 
 5.336106e-03  -7.910504e-03  0 
 5.657425e-03  -7.671044e-03  0 
 6.654422e-03  -8.435188e-03  0 
 6.039270e-03  -8.542651e-03  0 
 6.183568e-03  -7.707839e-03  0 
 4.131349e-03  -6.625114e-03  0 
 3.784882e-03  -6.662319e-03  0 
VECTORS displacement_ITER8 FLOAT
 3.517768e-03  -6.400052e-03  0 
 6.511397e-03  -7.202442e-03  0 
 4.867748e-03  -8.113349e-03  0 
 8.809103e-03  -8.792573e-03  0 
 3.551293e-03  -6.701537e-03  0 
 4.002892e-03  -6.897367e-03  0 
 4.522635e-03  -6.968737e-03  0 
 5.195471e-03  -7.023721e-03  0 
 5.844246e-03  -7.105431e-03  0 
 3.985581e-03  -6.318016e-03  0 
 4.258820e-03  -6.447656e-03  0 
 4.424247e-03  -6.739067e-03  0 
 4.589677e-03  -7.082673e-03  0 
 4.712028e-03  -7.519878e-03  0 
 6.831309e-03  -8.316745e-03  0 
 7.011634e-03  -9.096209e-03  0 
 7.182893e-03  -9.524298e-03  0 
 7.456379e-03  -9.660324e-03  0 
 7.901778e-03  -9.496497e-03  0 
 5.783491e-03  -8.437375e-03  0 
 6.482454e-03  -8.604198e-03  0 
 7.111592e-03  -8.634121e-03  0 
 7.684301e-03  -8.670590e-03  0 
 8.230376e-03  -8.718243e-03  0 
 6.391906e-03  -8.444332e-03  0 
 5.089921e-03  -7.564175e-03  0 
 7.168128e-03  -8.843791e-03  0 
 5.679921e-03  -7.822529e-03  0 
 7.668177e-03  -9.189741e-03  0 
 5.202551e-03  -7.582941e-03  0 
 5.415208e-03  -8.011226e-03  0 
 6.667596e-03  -8.458724e-03  0 
 6.549208e-03  -8.841335e-03  0 
 5.335849e-03  -7.577426e-03  0 
 6.010792e-03  -8.415783e-03  0 
 5.698936e-03  -7.980327e-03  0 
 7.083816e-03  -9.265544e-03  0 
 4.963010e-03  -7.243458e-03  0 
 7.771744e-03  -8.797664e-03  0 
 5.948650e-03  -8.170475e-03  0 
 6.239196e-03  -8.386968e-03  0 
 4.719892e-03  -7.457251e-03  0 
 5.549908e-03  -7.990775e-03  0 
 6.074405e-03  -8.116224e-03  0 
 5.015825e-03  -7.655006e-03  0 
 5.046630e-03  -7.480068e-03  0 
 4.502962e-03  -7.271822e-03  0 
 4.627522e-03  -7.000221e-03  0 
 6.695784e-03  -9.077352e-03  0 
 6.238104e-03  -8.213428e-03  0 
 7.224628e-03  -8.643760e-03  0 
 4.104509e-03  -7.000751e-03  0 
 8.150273e-03  -8.896780e-03  0 
 5.299543e-03  -7.928702e-03  0 
 5.666420e-03  -7.658929e-03  0 
 6.653392e-03  -8.466499e-03  0 
 6.057949e-03  -8.530738e-03  0 
 6.194947e-03  -7.739367e-03  0 
 4.125171e-03  -6.633431e-03  0 
 3.803651e-03  -6.611395e-03  0 
VECTORS displacement_ITER9 FLOAT
 3.609160e-03  -6.391515e-03  0 
 6.509774e-03  -7.078364e-03  0 
 4.869343e-03  -8.103311e-03  0 
 8.789548e-03  -8.770237e-03  0 
 3.544118e-03  -6.642683e-03  0 
 3.968834e-03  -6.796102e-03  0 
 4.570498e-03  -6.905445e-03  0 
 5.191461e-03  -7.041193e-03  0 
 5.779539e-03  -7.069252e-03  0 
 3.983228e-03  -6.256509e-03  0 
 4.253371e-03  -6.409675e-03  0 
 4.434039e-03  -6.703670e-03  0 
 4.583907e-03  -7.066548e-03  0 
 4.697660e-03  -7.522889e-03  0 
 6.805498e-03  -8.288572e-03  0 
 6.995380e-03  -9.074372e-03  0 
 7.180254e-03  -9.504064e-03  0 
 7.464809e-03  -9.652246e-03  0 
 7.907856e-03  -9.498025e-03  0 
 5.784962e-03  -8.455282e-03  0 
 6.474824e-03  -8.562442e-03  0 
 7.067583e-03  -8.671649e-03  0 
 7.673961e-03  -8.715024e-03  0 
 8.244977e-03  -8.732243e-03  0 
 6.378953e-03  -8.413842e-03  0 
 5.092212e-03  -7.533967e-03  0 
 7.162651e-03  -8.821619e-03  0 
 5.675355e-03  -7.815336e-03  0 
 7.675813e-03  -9.186689e-03  0 
 5.201709e-03  -7.570287e-03  0 
 5.417716e-03  -7.967459e-03  0 
 6.641782e-03  -8.448085e-03  0 
 6.543223e-03  -8.801205e-03  0 
 5.331226e-03  -7.558289e-03  0 
 6.003951e-03  -8.371932e-03  0 
 5.693184e-03  -7.951233e-03  0 
 7.080032e-03  -9.237397e-03  0 
 4.962356e-03  -7.218115e-03  0 
 7.780643e-03  -8.803496e-03  0 
 5.956283e-03  -8.165004e-03  0 
 6.201639e-03  -8.345717e-03  0 
 4.730253e-03  -7.424254e-03  0 
 5.546646e-03  -7.929727e-03  0 
 6.058885e-03  -8.103437e-03  0 
 5.032491e-03  -7.617462e-03  0 
 5.078103e-03  -7.432913e-03  0 
 4.517409e-03  -7.233116e-03  0 
 4.622300e-03  -6.968744e-03  0 
 6.681027e-03  -9.040609e-03  0 
 6.216646e-03  -8.215286e-03  0 
 7.201665e-03  -8.648552e-03  0 
 4.086748e-03  -6.930679e-03  0 
 8.161178e-03  -8.905929e-03  0 
 5.292628e-03  -7.933006e-03  0 
 5.627399e-03  -7.616491e-03  0 
 6.613719e-03  -8.471341e-03  0 
 6.050023e-03  -8.476594e-03  0 
 6.139135e-03  -7.701081e-03  0 
 4.122664e-03  -6.573476e-03  0 
 3.808628e-03  -6.531614e-03  0 
VECTORS displacement_ITER10 FLOAT
 3.589842e-03  -6.320470e-03  0 
 6.430145e-03  -7.041966e-03  0 
 4.864490e-03  -8.165562e-03  0 
 8.760057e-03  -8.765358e-03  0 
 3.565254e-03  -6.670596e-03  0 
 3.995410e-03  -6.871509e-03  0 
 4.555689e-03  -6.990011e-03  0 
 5.176649e-03  -6.994723e-03  0 
 5.792078e-03  -7.037406e-03  0 
 4.007316e-03  -6.258504e-03  0 
 4.276410e-03  -6.422332e-03  0 
 4.454955e-03  -6.709971e-03  0 
 4.595837e-03  -7.074989e-03  0 
 4.742901e-03  -7.534936e-03  0 
 6.783804e-03  -8.255818e-03  0 
 6.983904e-03  -9.061913e-03  0 
 7.169191e-03  -9.510248e-03  0 
 7.453670e-03  -9.667795e-03  0 
 7.894843e-03  -9.516587e-03  0 
 5.818555e-03  -8.443791e-03  0 
 6.475604e-03  -8.568748e-03  0 
 7.063810e-03  -8.681019e-03  0 
 7.660827e-03  -8.733042e-03  0 
 8.245271e-03  -8.751382e-03  0 
 6.367728e-03  -8.415841e-03  0 
 5.100075e-03  -7.539552e-03  0 
 7.149467e-03  -8.828922e-03  0 
 5.687603e-03  -7.826254e-03  0 
 7.664689e-03  -9.202314e-03  0 
 5.226974e-03  -7.590818e-03  0 
 5.402431e-03  -7.971941e-03  0 
 6.633700e-03  -8.454279e-03  0 
 6.521598e-03  -8.806517e-03  0 
 5.342602e-03  -7.562890e-03  0 
 5.985552e-03  -8.374421e-03  0 
 5.690864e-03  -7.952773e-03  0 
 7.062960e-03  -9.247437e-03  0 
 4.983842e-03  -7.225405e-03  0 
 7.772582e-03  -8.815573e-03  0 
 5.965743e-03  -8.175771e-03  0 
 6.182307e-03  -8.319501e-03  0 
 4.737795e-03  -7.434939e-03  0 
 5.519792e-03  -7.939482e-03  0 
 6.058360e-03  -8.108622e-03  0 
 5.011699e-03  -7.626025e-03  0 
 5.038331e-03  -7.447952e-03  0 
 4.522184e-03  -7.268526e-03  0 
 4.647263e-03  -6.977835e-03  0 
 6.661403e-03  -9.040084e-03  0 
 6.218487e-03  -8.222169e-03  0 
 7.190723e-03  -8.659573e-03  0 
 4.119416e-03  -6.959445e-03  0 
 8.155058e-03  -8.925870e-03  0 
 5.329760e-03  -7.932039e-03  0 
 5.623205e-03  -7.597664e-03  0 
 6.610903e-03  -8.477263e-03  0 
 6.021848e-03  -8.478487e-03  0 
 6.122072e-03  -7.647595e-03  0 
 4.154409e-03  -6.587851e-03  0 
 3.840355e-03  -6.543576e-03  0 
VECTORS displacement_ITER11 FLOAT
 3.582891e-03  -6.342789e-03  0 
 6.429960e-03  -7.032760e-03  0 
 4.893350e-03  -8.179124e-03  0 
 8.799073e-03  -8.791850e-03  0 
 3.554382e-03  -6.655186e-03  0 
 3.989781e-03  -6.875949e-03  0 
 4.553234e-03  -6.986119e-03  0 
 5.161472e-03  -6.989578e-03  0 
 5.815549e-03  -7.022642e-03  0 
 4.009751e-03  -6.243496e-03  0 
 4.242983e-03  -6.388685e-03  0 
 4.422988e-03  -6.704426e-03  0 
 4.576072e-03  -7.096338e-03  0 
 4.754303e-03  -7.573809e-03  0 
 6.798224e-03  -8.247188e-03  0 
 6.994815e-03  -9.066755e-03  0 
 7.177304e-03  -9.517039e-03  0 
 7.458681e-03  -9.668131e-03  0 
 7.905320e-03  -9.516663e-03  0 
 5.802720e-03  -8.455930e-03  0 
 6.483991e-03  -8.614873e-03  0 
 7.099425e-03  -8.684827e-03  0 
 7.662991e-03  -8.724056e-03  0 
 8.226642e-03  -8.763642e-03  0 
 6.378328e-03  -8.429625e-03  0 
 5.102929e-03  -7.537665e-03  0 
 7.155917e-03  -8.845744e-03  0 
 5.693446e-03  -7.840486e-03  0 
 7.666036e-03  -9.202035e-03  0 
 5.225283e-03  -7.627077e-03  0 
 5.404207e-03  -7.975145e-03  0 
 6.652012e-03  -8.468618e-03  0 
 6.528739e-03  -8.817659e-03  0 
 5.349766e-03  -7.566277e-03  0 
 5.991913e-03  -8.383467e-03  0 
 5.698219e-03  -7.958947e-03  0 
 7.070774e-03  -9.256528e-03  0 
 4.982085e-03  -7.237074e-03  0 
 7.763578e-03  -8.823809e-03  0 
 5.957217e-03  -8.196452e-03  0 
 6.188862e-03  -8.322482e-03  0 
 4.735412e-03  -7.429701e-03  0 
 5.521730e-03  -7.942420e-03  0 
 6.070971e-03  -8.117328e-03  0 
 5.007439e-03  -7.622861e-03  0 
 5.031993e-03  -7.440889e-03  0 
 4.517070e-03  -7.265333e-03  0 
 4.645755e-03  -6.964411e-03  0 
 6.669331e-03  -9.048361e-03  0 
 6.233308e-03  -8.229720e-03  0 
 7.208275e-03  -8.674880e-03  0 
 4.112201e-03  -6.948163e-03  0 
 8.154126e-03  -8.922322e-03  0 
 5.328436e-03  -7.965304e-03  0 
 5.625265e-03  -7.601871e-03  0 
 6.638882e-03  -8.490300e-03  0 
 6.027133e-03  -8.485888e-03  0 
 6.137109e-03  -7.633845e-03  0 
 4.136710e-03  -6.559332e-03  0 
 3.822496e-03  -6.536241e-03  0 
VECTORS displacement_ITER12 FLOAT
 3.569331e-03  -6.369733e-03  0 
 6.446989e-03  -7.028084e-03  0 
 4.910185e-03  -8.183774e-03  0 
 8.805901e-03  -8.776385e-03  0 
 3.540619e-03  -6.645395e-03  0 
 3.984625e-03  -6.859441e-03  0 
 4.557218e-03  -6.961271e-03  0 
 5.172670e-03  -7.011237e-03  0 
 5.803057e-03  -7.015296e-03  0 
 3.997316e-03  -6.242453e-03  0 
 4.235963e-03  -6.383598e-03  0 
 4.416514e-03  -6.704696e-03  0 
 4.578373e-03  -7.081261e-03  0 
 4.759723e-03  -7.569726e-03  0 
 6.804398e-03  -8.253545e-03  0 
 7.000926e-03  -9.073369e-03  0 
 7.185227e-03  -9.521965e-03  0 
 7.468742e-03  -9.673708e-03  0 
 7.914863e-03  -9.519220e-03  0 
 5.813542e-03  -8.465447e-03  0 
 6.490667e-03  -8.613561e-03  0 
 7.096957e-03  -8.689135e-03  0 
 7.675040e-03  -8.733142e-03  0 
 8.240709e-03  -8.764477e-03  0 
 6.383750e-03  -8.432457e-03  0 
 5.102006e-03  -7.540242e-03  0 
 7.164400e-03  -8.846351e-03  0 
 5.695890e-03  -7.846614e-03  0 
 7.678971e-03  -9.205724e-03  0 
 5.231873e-03  -7.624714e-03  0 
 5.409814e-03  -7.975888e-03  0 
 6.655497e-03  -8.472795e-03  0 
 6.536938e-03  -8.818715e-03  0 
 5.349072e-03  -7.570243e-03  0 
 5.998138e-03  -8.384412e-03  0 
 5.701076e-03  -7.962791e-03  0 
 7.079885e-03  -9.258637e-03  0 
 4.978327e-03  -7.237999e-03  0 
 7.777528e-03  -8.827022e-03  0 
 5.966804e-03  -8.201198e-03  0 
 6.191103e-03  -8.326651e-03  0 
 4.733608e-03  -7.431370e-03  0 
 5.527728e-03  -7.936598e-03  0 
 6.073974e-03  -8.123292e-03  0 
 5.016516e-03  -7.623836e-03  0 
 5.048123e-03  -7.440777e-03  0 
 4.516241e-03  -7.257290e-03  0 
 4.638439e-03  -6.965181e-03  0 
 6.676097e-03  -9.051274e-03  0 
 6.235997e-03  -8.237664e-03  0 
 7.212639e-03  -8.676404e-03  0 
 4.101440e-03  -6.946341e-03  0 
 8.168502e-03  -8.922683e-03  0 
 5.338194e-03  -7.970184e-03  0 
 5.621282e-03  -7.599789e-03  0 
 6.639428e-03  -8.496284e-03  0 
 6.034560e-03  -8.485023e-03  0 
 6.136429e-03  -7.639785e-03  0 
 4.122684e-03  -6.558783e-03  0 
 3.803094e-03  -6.538168e-03  0 
VECTORS displacement_ITER13 FLOAT
 3.549743e-03  -6.355290e-03  0 
 6.449084e-03  -7.038232e-03  0 
 4.909242e-03  -8.191203e-03  0 
 8.802364e-03  -8.765611e-03  0 
 3.542772e-03  -6.654043e-03  0 
 3.982620e-03  -6.861524e-03  0 
 4.545114e-03  -6.958448e-03  0 
 5.180274e-03  -7.008599e-03  0 
 5.802671e-03  -7.026786e-03  0 
 3.995681e-03  -6.247801e-03  0 
 4.258743e-03  -6.396358e-03  0 
 4.430021e-03  -6.704541e-03  0 
 4.584524e-03  -7.064918e-03  0 
 4.755794e-03  -7.561971e-03  0 
 6.803421e-03  -8.259349e-03  0 
 7.001488e-03  -9.073759e-03  0 
 7.186352e-03  -9.522400e-03  0 
 7.471145e-03  -9.676420e-03  0 
 7.916527e-03  -9.520491e-03  0 
 5.817426e-03  -8.468545e-03  0 
 6.491137e-03  -8.594856e-03  0 
 7.088323e-03  -8.684121e-03  0 
 7.680967e-03  -8.736391e-03  0 
 8.249560e-03  -8.762444e-03  0 
 6.382224e-03  -8.430188e-03  0 
 5.098675e-03  -7.540919e-03  0 
 7.164829e-03  -8.842256e-03  0 
 5.697253e-03  -7.841750e-03  0 
 7.683350e-03  -9.207219e-03  0 
 5.236784e-03  -7.612116e-03  0 
 5.408353e-03  -7.978743e-03  0 
 6.652391e-03  -8.467942e-03  0 
 6.536655e-03  -8.818429e-03  0 
 5.347167e-03  -7.567527e-03  0 
 5.997036e-03  -8.385170e-03  0 
 5.699316e-03  -7.962442e-03  0 
 7.080812e-03  -9.258299e-03  0 
 4.979283e-03  -7.229612e-03  0 
 7.784504e-03  -8.826169e-03  0 
 5.974184e-03  -8.194643e-03  0 
 6.194199e-03  -8.328218e-03  0 
 4.728791e-03  -7.432996e-03  0 
 5.528446e-03  -7.941230e-03  0 
 6.072605e-03  -8.121318e-03  0 
 5.014230e-03  -7.627145e-03  0 
 5.046409e-03  -7.446233e-03  0 
 4.509725e-03  -7.256829e-03  0 
 4.637671e-03  -6.966910e-03  0 
 6.677218e-03  -9.051663e-03  0 
 6.234705e-03  -8.235229e-03  0 
 7.210368e-03  -8.670044e-03  0 
 4.101550e-03  -6.954275e-03  0 
 8.174307e-03  -8.923151e-03  0 
 5.341392e-03  -7.968035e-03  0 
 5.627058e-03  -7.601398e-03  0 
 6.633275e-03  -8.490276e-03  0 
 6.034645e-03  -8.487115e-03  0 
 6.136916e-03  -7.647722e-03  0 
 4.130258e-03  -6.574026e-03  0 
 3.806369e-03  -6.548035e-03  0 
VECTORS displacement_ITER14 FLOAT
 3.548363e-03  -6.362831e-03  0 
 6.454520e-03  -7.042435e-03  0 
 4.898886e-03  -8.174865e-03  0 
 8.806359e-03  -8.782031e-03  0 
 3.539169e-03  -6.657900e-03  0 
 3.982385e-03  -6.860432e-03  0 
 4.549236e-03  -6.963314e-03  0 
 5.177940e-03  -7.005242e-03  0 
 5.811220e-03  -7.041662e-03  0 
 3.992428e-03  -6.248508e-03  0 
 4.258093e-03  -6.399841e-03  0 
 4.426202e-03  -6.709187e-03  0 
 4.576710e-03  -7.078809e-03  0 
 4.746547e-03  -7.569251e-03  0 
 6.805879e-03  -8.264009e-03  0 
 7.002682e-03  -9.076236e-03  0 
 7.186082e-03  -9.523554e-03  0 
 7.468824e-03  -9.675273e-03  0 
 7.914570e-03  -9.520284e-03  0 
 5.810589e-03  -8.468456e-03  0 
 6.488820e-03  -8.601260e-03  0 
 7.096792e-03  -8.686635e-03  0 
 7.677679e-03  -8.731407e-03  0 
 8.241562e-03  -8.762415e-03  0 