# vtk DataFile Version 3.1
this is an vtk file created by FEMAC
ASCII
DATASET UNSTRUCTURED_GRID
POINTS 58 FLOAT
1.000000 4.000000 0.000000
1.000000 5.000000 0.000000
2.000000 4.000000 0.000000
2.000000 5.000000 0.000000
1.000000 4.166667 0.000000
1.000000 4.333333 0.000000
1.000000 4.500000 0.000000
1.000000 4.666667 0.000000
1.000000 4.833333 0.000000
1.166667 4.000000 0.000000
1.333333 4.000000 0.000000
1.500000 4.000000 0.000000
1.666667 4.000000 0.000000
1.833333 4.000000 0.000000
1.166667 5.000000 0.000000
1.333333 5.000000 0.000000
1.500000 5.000000 0.000000
1.666667 5.000000 0.000000
1.833333 5.000000 0.000000
2.000000 4.166667 0.000000
2.000000 4.333333 0.000000
2.000000 4.500000 0.000000
2.000000 4.666667 0.000000
2.000000 4.833333 0.000000
1.504630 4.500000 0.000000
1.704269 4.741187 0.000000
1.680984 4.270977 0.000000
1.105257 4.767940 0.000000
1.105257 4.232060 0.000000
1.741291 4.905541 0.000000
1.756801 4.134312 0.000000
1.331126 4.500000 0.000000
1.693267 4.545326 0.000000
1.534459 4.255393 0.000000
1.539116 4.747040 0.000000
1.428455 4.345931 0.000000
1.429231 4.654475 0.000000
1.585520 4.869851 0.000000
1.585520 4.130149 0.000000
1.603650 4.388055 0.000000
1.575050 4.623277 0.000000
1.880784 4.671883 0.000000
1.855120 4.271332 0.000000
1.219009 4.873523 0.000000
1.219009 4.126477 0.000000
1.250386 4.321487 0.000000
1.250496 4.678571 0.000000
1.408101 4.831923 0.000000
1.407309 4.168491 0.000000
1.176749 4.500010 0.000000
1.106501 4.622637 0.000000
1.106478 4.377378 0.000000
1.868212 4.455430 0.000000
1.740247 4.386224 0.000000
1.098187 4.894959 0.000000
1.098187 4.105041 0.000000
1.859946 4.858657 0.000000
1.889051 4.114462 0.000000
CELLS 90 360 
3 29 18 17
3 13 30 12
3 27  8  7
3 4 28  5
3 35 24 31
3 24 36 31
3 17 37 29
3 37 25 29
3 38 12 30
3 26 38 30
3 24 39 32
3 26 39 33
3 40 24 32
3 40 25 34
3 25 40 32
3 41 22 23
3 20 42 19
3 43 15 14
3 10 44  9
3 45 28 44
3 27 46 43
3 47 15 43
3 10 48 44
3 35 39 24
3 35 33 39
3 40 36 24
3 34 36 40
3 38 11 12
3 26 33 38
3 16 37 17
3 34 25 37
3 11 48 10
3 48 11 38
3 38 33 48
3 47 16 15
3 16 47 37
3 34 37 47
3 42 26 30
3 41 21 22
3 41 25 32
3 31 45 35
3 46 31 36
3 49 31 46
3 31 49 45
3 6 50  7
3 46 50 49
3 50  6 49
3 51  6  5
3 51 45 49
3 6 51 49
3 52 21 41
3 32 52 41
3 53 42 52
3 42 53 26
3 32 53 52
3 8 54  1
3 54 14  1
3 54  8 27
3 55  4  0
3 9 55  0
3 4 55 28
3 18 56  3
3 56 23  3
3 57 13  2
3 19 57  2
3 53 39 26
3 32 39 53
3 52 20 21
3 42 20 52
3 28 51  5
3 28 45 51
3 50 27  7
3 46 27 50
3 54 43 14
3 27 43 54
3 44 55  9
3 44 28 55
3 57 19 42
3 30 57 42
3 57 30 13
3 23 56 41
3 29 56 18
3 25 56 29
3 25 41 56
3 35 48 33
3 35 45 48
3 44 48 45
3 47 36 34
3 46 36 47
3 47 43 46
CELL_TYPES 90
5 5 5 5 5 5 5 5 5 5 5 5 5 5 5 5 5 5 5 5 5 5 5 5 5 5 5 5 5 5 5 5 5 5 5 5 5 5 5 5 5 5 5 5 5 5 5 5 5 5 5 5 5 5 5 5 5 5 5 5 5 5 5 5 5 5 5 5 5 5 5 5 5 5 5 5 5 5 5 5 5 5 5 5 5 5 5 5 5 5 
POINT_DATA 58
VECTORS displacement_ITER1 FLOAT
 7.960471e-04  -4.836793e-04  0 
 3.427404e-03  -6.218909e-03  0 
 3.287876e-03  -3.306058e-03  0 
 7.904013e-03  -1.496186e-02  0 
 -7.264506e-04  -4.664893e-04  0 
 1.805228e-04  -5.910309e-04  0 
 2.992178e-04  -4.336324e-04  0 
 7.370765e-04  -8.782820e-04  0 
 -2.514155e-04  -2.569141e-03  0 
 1.609178e-03  -2.065850e-03  0 
 1.018776e-03  -1.659729e-03  0 
 9.650644e-04  -2.439808e-03  0 
 1.823045e-03  -2.764866e-03  0 
 2.540506e-03  -2.870805e-03  0 
 4.862034e-03  -9.214725e-03  0 
 5.092815e-03  -9.125730e-03  0 
 4.481320e-03  -8.919435e-03  0 
 4.471999e-03  -9.877323e-03  0 
 5.381479e-03  -1.203277e-02  0 
 6.122119e-03  -7.955009e-03  0 
 5.617705e-03  -8.246885e-03  0 
 5.666231e-03  -8.025177e-03  0 
 6.874257e-03  -8.314883e-03  0 
 8.638872e-03  -9.537425e-03  0 
 3.298674e-03  -5.866237e-03  0 
 5.122017e-03  -8.789179e-03  0 
 3.314395e-03  -4.991736e-03  0 
 1.258723e-03  -3.427763e-03  0 
 -1.645361e-05  -1.484266e-03  0 
 4.996110e-03  -1.018439e-02  0 
 2.734135e-03  -4.084434e-03  0 
 1.922920e-03  -4.360524e-03  0 
 5.072627e-03  -7.283305e-03  0 
 2.307242e-03  -3.769138e-03  0 
 4.503644e-03  -8.557424e-03  0 
 1.979155e-03  -3.829639e-03  0 
 3.327590e-03  -6.857088e-03  0 
 4.531975e-03  -9.221360e-03  0 
 1.775083e-03  -3.354772e-03  0 
 3.557591e-03  -5.426283e-03  0 
 4.322623e-03  -7.628131e-03  0 
 6.359928e-03  -7.847073e-03  0 
 4.915205e-03  -6.873891e-03  0 
 3.697891e-03  -7.454419e-03  0 
 5.259036e-04  -1.523171e-03  0 
 7.194182e-04  -2.462110e-03  0 
 2.105733e-03  -5.010889e-03  0 
 4.407150e-03  -8.603093e-03  0 
 1.254684e-03  -2.380790e-03  0 
 9.823877e-04  -2.699209e-03  0 
 1.058752e-03  -2.409160e-03  0 
 3.537515e-04  -1.516476e-03  0 
 5.373323e-03  -7.644017e-03  0 
 4.538895e-03  -6.668331e-03  0 
 2.423635e-03  -6.200091e-03  0 
 3.434342e-04  -1.224308e-03  0 
 6.157615e-03  -1.012102e-02  0 
 3.694297e-03  -4.656834e-03  0 
VECTORS displacement_ITER2 FLOAT
 1.066307e-05  -1.059246e-03  0 
 2.506651e-03  -5.095734e-03  0 
 1.599882e-03  -2.460195e-03  0 
 4.330788e-03  -1.141897e-02  0 
 -1.970139e-04  -1.132767e-03  0 
 3.498337e-04  -1.586133e-03  0 
 2.727146e-04  -5.334464e-04  0 
 8.565888e-04  -4.156720e-04  0 
 6.358419e-04  -1.786705e-03  0 
 1.243746e-03  -1.637887e-03  0 
 1.630771e-03  -2.351001e-03  0 
 1.780962e-03  -3.192072e-03  0 
 2.476948e-03  -3.522359e-03  0 
 2.127607e-03  -3.145122e-03  0 
 3.331812e-03  -5.251709e-03  0 
 3.782113e-03  -5.234414e-03  0 
 4.086706e-03  -6.513018e-03  0 
 4.146539e-03  -8.207016e-03  0 
 3.998230e-03  -8.574008e-03  0 
 4.642342e-03  -5.738141e-03  0 
 4.824301e-03  -6.722897e-03  0 
 5.451412e-03  -7.047758e-03  0 
 6.254990e-03  -6.914772e-03  0 
 6.555410e-03  -7.310547e-03  0 
 2.556453e-03  -4.742390e-03  0 
 4.149588e-03  -7.481141e-03  0 
 2.682502e-03  -4.032283e-03  0 
 1.589149e-03  -2.427931e-03  0 
 4.328093e-04  -2.037665e-03  0 
 4.232732e-03  -8.345050e-03  0 
 2.276582e-03  -3.441063e-03  0 
 1.536822e-03  -3.733981e-03  0 
 4.151439e-03  -5.831719e-03  0 
 2.101141e-03  -3.520992e-03  0 
 3.425424e-03  -6.595939e-03  0 
 1.734032e-03  -3.515297e-03  0 
 2.561830e-03  -5.268164e-03  0 
 3.728699e-03  -7.313654e-03  0 
 1.951285e-03  -3.515362e-03  0 
 2.830295e-03  -4.369518e-03  0 
 3.325630e-03  -6.083452e-03  0 
 5.716862e-03  -6.780168e-03  0 
 3.814631e-03  -5.208905e-03  0 
 3.103910e-03  -4.605062e-03  0 
 9.465451e-04  -2.160204e-03  0 
 8.190293e-04  -2.597284e-03  0 
 1.844531e-03  -3.822979e-03  0 
 3.335030e-03  -5.842688e-03  0 
 1.534829e-03  -2.795089e-03  0 
 8.162187e-04  -2.482999e-03  0 
 1.013036e-03  -1.913414e-03  0 
 3.684776e-04  -1.849151e-03  0 
 4.720571e-03  -6.208406e-03  0 
 3.678399e-03  -5.177593e-03  0 
 2.422395e-03  -4.098404e-03  0 
 3.616595e-04  -1.722309e-03  0 
 4.627798e-03  -8.560866e-03  0 
 2.692897e-03  -3.471150e-03  0 
VECTORS displacement_ITER3 FLOAT
 2.700099e-04  -1.041295e-03  0 
 2.212097e-03  -3.430160e-03  0 
 2.141822e-03  -3.275121e-03  0 
 4.045820e-03  -8.790138e-03  0 
 -9.343070e-05  -1.550739e-03  0 
 -1.991664e-04  -1.288775e-03  0 
 2.817213e-04  -1.350224e-03  0 
 4.826611e-04  -1.512848e-03  0 
 5.643862e-04  -1.877672e-03  0 
 1.047412e-03  -1.524432e-03  0 
 1.861197e-03  -1.998398e-03  0 
 1.986892e-03  -2.514300e-03  0 
 2.174201e-03  -3.031908e-03  0 
 2.167371e-03  -3.724690e-03  0 
 2.665473e-03  -4.390689e-03  0 
 2.856246e-03  -4.958510e-03  0 
 3.116224e-03  -5.881168e-03  0 
 3.289959e-03  -6.846165e-03  0 
 3.569239e-03  -7.076208e-03  0 
 3.427938e-03  -5.476243e-03  0 
 3.808331e-03  -5.811021e-03  0 
 4.332417e-03  -6.097541e-03  0 
 4.767637e-03  -6.074238e-03  0 
 5.069160e-03  -6.489064e-03  0 
 2.115171e-03  -4.315215e-03  0 
 3.359162e-03  -6.239633e-03  0 
 2.456227e-03  -3.788709e-03  0 
 1.032712e-03  -2.687324e-03  0 
 1.664480e-04  -1.913737e-03  0 
 3.506297e-03  -6.830845e-03  0 
 2.262278e-03  -3.560065e-03  0 
 1.285931e-03  -3.559582e-03  0 
 3.259584e-03  -5.151901e-03  0 
 1.900676e-03  -3.223377e-03  0 
 2.736846e-03  -5.678750e-03  0 
 1.490054e-03  -3.308248e-03  0 
 2.043846e-03  -4.717678e-03  0 
 3.015944e-03  -6.238257e-03  0 
 1.931200e-03  -2.982790e-03  0 
 2.402537e-03  -4.051126e-03  0 
 2.681547e-03  -5.269103e-03  0 
 4.366957e-03  -5.941529e-03  0 
 3.176971e-03  -4.739184e-03  0 
 2.191455e-03  -4.279723e-03  0 
 8.726196e-04  -2.072285e-03  0 
 6.691879e-04  -2.623485e-03  0 
 1.373951e-03  -3.666819e-03  0 
 2.544446e-03  -5.260455e-03  0 
 1.431294e-03  -2.520588e-03  0 
 7.007340e-04  -2.671728e-03  0 
 7.430722e-04  -2.334400e-03  0 
 2.271198e-04  -2.065487e-03  0 
 3.763882e-03  -5.410606e-03  0 
 3.049498e-03  -4.630662e-03  0 
 1.789102e-03  -3.528203e-03  0 
 4.535339e-04  -1.663217e-03  0 
 3.864803e-03  -7.000539e-03  0 
 2.399224e-03  -4.012686e-03  0 
VECTORS displacement_ITER4 FLOAT
 5.191834e-04  -1.003428e-03  0 
 1.888471e-03  -2.723199e-03  0 
 1.866986e-03  -4.084585e-03  0 
 3.859143e-03  -7.331237e-03  0 
 5.732087e-05  -1.556719e-03  0 
 -1.085252e-04  -1.156372e-03  0 
 3.064548e-04  -1.438634e-03  0 
 4.486822e-04  -1.636424e-03  0 
 5.968761e-04  -1.888087e-03  0 
 1.043929e-03  -1.745161e-03  0 
 1.700644e-03  -2.110523e-03  0 
 1.860214e-03  -2.345821e-03  0 
 1.854421e-03  -2.611464e-03  0 
 1.969423e-03  -3.363163e-03  0 
 2.296579e-03  -3.962218e-03  0 
 2.611587e-03  -4.866207e-03  0 
 2.731732e-03  -5.564105e-03  0 
 2.886649e-03  -6.175824e-03  0 
 3.263156e-03  -6.661031e-03  0 
 3.116655e-03  -5.263601e-03  0 
 3.403767e-03  -5.417314e-03  0 
 3.681998e-03  -5.683878e-03  0 
 4.025298e-03  -5.822071e-03  0 
 4.465144e-03  -6.188371e-03  0 
 1.904766e-03  -4.087661e-03  0 
 3.020407e-03  -5.682290e-03  0 
 2.230279e-03  -3.656753e-03  0 
 9.241673e-04  -2.613892e-03  0 
 2.200901e-04  -1.840481e-03  0 
 3.147381e-03  -6.250451e-03  0 
 2.135683e-03  -3.369242e-03  0 
 1.189751e-03  -3.358478e-03  0 
 2.836513e-03  -4.891772e-03  0 
 1.675298e-03  -3.087833e-03  0 
 2.471342e-03  -5.257499e-03  0 
 1.333909e-03  -3.167968e-03  0 
 1.858536e-03  -4.414074e-03  0 
 2.714492e-03  -5.753693e-03  0 
 1.723898e-03  -2.727839e-03  0 
 2.141043e-03  -3.914853e-03  0 
 2.414707e-03  -4.898449e-03  0 
 3.706302e-03  -5.610700e-03  0 
 2.916925e-03  -4.532414e-03  0 
 1.847119e-03  -3.957651e-03  0 
 8.469688e-04  -2.086333e-03  0 
 6.467328e-04  -2.526134e-03  0 
 1.234448e-03  -3.459234e-03  0 
 2.255508e-03  -4.977930e-03  0 
 1.260027e-03  -2.485491e-03  0 
 6.920554e-04  -2.561350e-03  0 
 6.928355e-04  -2.309624e-03  0 
 2.929607e-04  -1.980161e-03  0 
 3.258004e-03  -5.141055e-03  0 
 2.704030e-03  -4.460684e-03  0 
 1.501272e-03  -3.166088e-03  0 
 5.828829e-04  -1.662707e-03  0 
 3.614047e-03  -6.351333e-03  0 
 2.357307e-03  -3.943344e-03  0 
VECTORS displacement_ITER5 FLOAT
 5.966959e-04  -1.052349e-03  0 
 1.569662e-03  -2.612547e-03  0 
 1.977745e-03  -4.215781e-03  0 
 3.571664e-03  -6.791953e-03  0 
 4.039109e-05  -1.402044e-03  0 
 1.369415e-04  -1.280084e-03  0 
 2.714741e-04  -1.247062e-03  0 
 4.512369e-04  -1.393369e-03  0 
 7.181468e-04  -1.736580e-03  0 
 1.009524e-03  -1.817156e-03  0 
 1.297641e-03  -2.239488e-03  0 
 1.527515e-03  -2.446378e-03  0 
 1.529055e-03  -2.777261e-03  0 
 1.839276e-03  -3.286046e-03  0 
 2.122520e-03  -3.529112e-03  0 
 2.566296e-03  -4.583562e-03  0 
 2.726789e-03  -5.317803e-03  0 
 2.873773e-03  -5.905181e-03  0 
 3.133597e-03  -6.466456e-03  0 
 2.902433e-03  -5.272589e-03  0 
 3.310689e-03  -5.717337e-03  0 
 3.674700e-03  -5.893965e-03  0 
 3.943349e-03  -5.984889e-03  0 
 4.168436e-03  -6.192518e-03  0 
 1.849731e-03  -4.009657e-03  0 
 2.990335e-03  -5.642212e-03  0 
 2.061736e-03  -3.748950e-03  0 
 9.915788e-04  -2.411779e-03  0 
 3.083826e-04  -1.821689e-03  0 
 3.075212e-03  -6.107939e-03  0 
 1.921005e-03  -3.534561e-03  0 
 1.169489e-03  -3.206806e-03  0 
 2.769477e-03  -4.928388e-03  0 
 1.528281e-03  -3.141008e-03  0 
 2.448376e-03  -5.098444e-03  0 
 1.270082e-03  -3.121392e-03  0 
 1.848469e-03  -4.246870e-03  0 
 2.698911e-03  -5.571840e-03  0 
 1.512412e-03  -2.845100e-03  0 
 2.035982e-03  -3.930996e-03  0 
 2.378767e-03  -4.818264e-03  0 
 3.633552e-03  -5.761752e-03  0 
 2.703825e-03  -4.669038e-03  0 
 1.800275e-03  -3.607290e-03  0 
 7.729912e-04  -2.035568e-03  0 
 6.544788e-04  -2.407033e-03  0 
 1.248311e-03  -3.255421e-03  0 
 2.224917e-03  -4.729345e-03  0 
 1.107153e-03  -2.549396e-03  0 
 6.829022e-04  -2.374996e-03  0 
 6.874029e-04  -2.111314e-03  0 
 3.558575e-04  -1.848545e-03  0 
 3.218146e-03  -5.299644e-03  0 
 2.587874e-03  -4.522245e-03  0 
 1.480064e-03  -2.838237e-03  0 
 5.472678e-04  -1.615751e-03  0 
 3.507498e-03  -6.269672e-03  0 
 2.245979e-03  -4.077142e-03  0 
VECTORS displacement_ITER6 FLOAT
 6.261075e-04  -1.018826e-03  0 
 1.629061e-03  -2.434666e-03  0 
 1.961651e-03  -4.508314e-03  0 
 3.548852e-03  -6.624149e-03  0 
 5.858183e-06  -1.360217e-03  0 
 1.942741e-04  -1.414503e-03  0 
 1.834853e-04  -1.262936e-03  0 
 3.845298e-04  -1.422876e-03  0 
 7.547791e-04  -1.875991e-03  0 
 9.811904e-04  -1.813523e-03  0 
 1.161084e-03  -2.207908e-03  0 
 1.426188e-03  -2.571083e-03  0 
 1.588444e-03  -2.933575e-03  0 
 1.783354e-03  -3.320969e-03  0 
 2.085173e-03  -3.604330e-03  0 
 2.422218e-03  -4.568629e-03  0 
 2.577388e-03  -5.197388e-03  0 
 2.776730e-03  -5.759150e-03  0 
 3.103394e-03  -6.313487e-03  0 
 2.758961e-03  -5.183898e-03  0 
 3.217939e-03  -5.601870e-03  0 
 3.560227e-03  -5.742650e-03  0 
 3.812713e-03  -5.929742e-03  0 
 3.957264e-03  -6.195578e-03  0 
 1.801847e-03  -4.010531e-03  0 
 2.886649e-03  -5.533679e-03  0 
 2.007676e-03  -3.792774e-03  0 
 9.862517e-04  -2.512786e-03  0 
 3.297062e-04  -1.842583e-03  0 
 2.984372e-03  -5.945925e-03  0 
 1.898803e-03  -3.576511e-03  0 
 1.145663e-03  -3.228694e-03  0 
 2.666193e-03  -4.897143e-03  0 
 1.518846e-03  -3.218411e-03  0 
 2.381292e-03  -5.021405e-03  0 
 1.264805e-03  -3.161931e-03  0 
 1.810285e-03  -4.230453e-03  0 
 2.606394e-03  -5.434751e-03  0 
 1.500837e-03  -3.002430e-03  0 
 1.984103e-03  -3.950012e-03  0 
 2.309951e-03  -4.771620e-03  0 
 3.475039e-03  -5.710262e-03  0 
 2.621597e-03  -4.628572e-03  0 
 1.744424e-03  -3.670701e-03  0 
 7.519139e-04  -2.005381e-03  0 
 6.625486e-04  -2.419031e-03  0 
 1.227569e-03  -3.307727e-03  0 
 2.163059e-03  -4.690825e-03  0 
 1.112021e-03  -2.606280e-03  0 
 6.416363e-04  -2.397901e-03  0 
 6.341128e-04  -2.161932e-03  0 
 3.471619e-04  -1.867047e-03  0 
 3.118648e-03  -5.229296e-03  0 
 2.509241e-03  -4.504569e-03  0 
 1.431537e-03  -2.890769e-03  0 
 5.298127e-04  -1.577028e-03  0 
 3.386834e-03  -6.140558e-03  0 
 2.231305e-03  -4.148775e-03  0 
VECTORS displacement_ITER7 FLOAT
 6.325629e-04  -1.081938e-03  0 
 1.632148e-03  -2.443301e-03  0 
 1.991719e-03  -4.551636e-03  0 
 3.574025e-03  -6.486095e-03  0 
 4.215669e-05  -1.242930e-03  0 
 1.154003e-04  -1.310379e-03  0 
 1.575682e-04  -1.320675e-03  0 
 3.416803e-04  -1.461402e-03  0 
 7.802939e-04  -1.824454e-03  0 
 9.251060e-04  -1.752805e-03  0 
 1.136714e-03  -2.077478e-03  0 
 1.379656e-03  -2.521442e-03  0 
 1.556751e-03  -2.949684e-03  0 
 1.719742e-03  -3.380098e-03  0 
 2.139130e-03  -3.588644e-03  0 
 2.377515e-03  -4.484625e-03  0 
 2.575341e-03  -5.131836e-03  0 
 2.836845e-03  -5.757518e-03  0 
 3.134257e-03  -6.226585e-03  0 
 2.641098e-03  -5.158547e-03  0 
 3.134962e-03  -5.477389e-03  0 
 3.483381e-03  -5.651653e-03  0 
 3.746093e-03  -5.889014e-03  0 
 3.878689e-03  -6.190453e-03  0 
 1.773407e-03  -3.961417e-03  0 
 2.851169e-03  -5.461808e-03  0 
 1.981726e-03  -3.770039e-03  0 
 9.615033e-04  -2.515981e-03  0 
 3.105627e-04  -1.728615e-03  0 
 3.005094e-03  -5.900513e-03  0 
 1.871603e-03  -3.582782e-03  0 
 1.131185e-03  -3.189808e-03  0 
 2.601987e-03  -4.838039e-03  0 
 1.506091e-03  -3.189194e-03  0 
 2.351575e-03  -4.949260e-03  0 
 1.255359e-03  -3.120937e-03  0 
 1.781920e-03  -4.173677e-03  0 
 2.592846e-03  -5.361516e-03  0 
 1.484075e-03  -2.988535e-03  0 
 1.953385e-03  -3.913102e-03  0 
 2.268969e-03  -4.702029e-03  0 
 3.402366e-03  -5.670256e-03  0 
 2.569966e-03  -4.581531e-03  0 
 1.743716e-03  -3.669931e-03  0 
 7.043358e-04  -1.932698e-03  0 
 6.576421e-04  -2.367300e-03  0 
 1.201477e-03  -3.290051e-03  0 
 2.142723e-03  -4.623097e-03  0 
 1.095648e-03  -2.545286e-03  0 
 6.236431e-04  -2.376196e-03  0 
 5.966383e-04  -2.171212e-03  0 
 3.268076e-04  -1.828717e-03  0 
 3.041014e-03  -5.153760e-03  0 
 2.459410e-03  -4.456762e-03  0 
 1.457712e-03  -2.855591e-03  0 
 4.970427e-04  -1.515885e-03  0 
 3.378760e-03  -6.076334e-03  0 
 2.176896e-03  -4.204256e-03  0 
VECTORS displacement_ITER8 FLOAT
 5.728980e-04  -1.121172e-03  0 
 1.570408e-03  -2.477527e-03  0 
 1.987439e-03  -4.519692e-03  0 
 3.606445e-03  -6.368344e-03  0 
 6.960994e-05  -1.206259e-03  0 
 8.801270e-05  -1.207526e-03  0 
 2.205886e-04  -1.286909e-03  0 
 3.794492e-04  -1.421883e-03  0 
 7.701284e-04  -1.686907e-03  0 
 9.260154e-04  -1.772348e-03  0 
 1.207043e-03  -2.075116e-03  0 
 1.351740e-03  -2.480270e-03  0 
 1.492718e-03  -2.902143e-03  0 
 1.678412e-03  -3.403985e-03  0 
 2.179426e-03  -3.523020e-03  0 
 2.426986e-03  -4.390985e-03  0 
 2.680066e-03  -5.101225e-03  0 
 2.943581e-03  -5.773104e-03  0 
 3.169479e-03  -6.186235e-03  0 
 2.662683e-03  -5.129732e-03  0 
 3.142300e-03  -5.422101e-03  0 
 3.499605e-03  -5.640607e-03  0 
 3.769338e-03  -5.842582e-03  0 
 3.902148e-03  -6.097890e-03  0 
 1.786368e-03  -3.914761e-03  0 
 2.891278e-03  -5.438409e-03  0 
 1.989773e-03  -3.742503e-03  0 
 9.616884e-04  -2.413674e-03  0 
 3.063697e-04  -1.689688e-03  0 
 3.066640e-03  -5.901319e-03  0 
 1.869347e-03  -3.567971e-03  0 
 1.146058e-03  -3.137214e-03  0 
 2.617621e-03  -4.797620e-03  0 
 1.503709e-03  -3.141724e-03  0 
 2.376911e-03  -4.904076e-03  0 
 1.255969e-03  -3.075299e-03  0 
 1.795599e-03  -4.112465e-03  0 
 2.646194e-03  -5.343115e-03  0 
 1.464596e-03  -2.934977e-03  0 
 1.962512e-03  -3.876182e-03  0 
 2.285502e-03  -4.654486e-03  0 
 3.441052e-03  -5.638610e-03  0 
 2.582891e-03  -4.561712e-03  0 
 1.776203e-03  -3.588701e-03  0 
 6.979697e-04  -1.947641e-03  0 
 6.550299e-04  -2.335421e-03  0 
 1.217768e-03  -3.205199e-03  0 
 2.175184e-03  -4.544669e-03  0 
 1.080653e-03  -2.488858e-03  0 
 6.545740e-04  -2.326171e-03  0 
 6.329175e-04  -2.103031e-03  0 
 3.392115e-04  -1.790405e-03  0 
 3.045075e-03  -5.122850e-03  0 
 2.468174e-03  -4.429370e-03  0 
 1.481716e-03  -2.763062e-03  0 
 4.864270e-04  -1.540075e-03  0 
 3.428265e-03  -6.032106e-03  0 
 2.173510e-03  -4.197873e-03  0 
VECTORS displacement_ITER9 FLOAT
 4.748916e-04  -1.157080e-03  0 
 1.612138e-03  -2.409648e-03  0 
 1.922460e-03  -4.478816e-03  0 
 3.635324e-03  -6.306718e-03  0 
 7.700367e-05  -1.193639e-03  0 
 7.891572e-05  -1.157260e-03  0 
 2.266965e-04  -1.200753e-03  0 
 4.195850e-04  -1.380670e-03  0 
 7.294185e-04  -1.685264e-03  0 
 9.419507e-04  -1.869549e-03  0 
 1.235359e-03  -2.199971e-03  0 
 1.350789e-03  -2.510869e-03  0 
 1.459020e-03  -2.873776e-03  0 
 1.657648e-03  -3.388901e-03  0 
 2.168503e-03  -3.565956e-03  0 
 2.473849e-03  -4.398189e-03  0 
 2.716277e-03  -5.107105e-03  0 
 2.944160e-03  -5.722692e-03  0 
 3.190385e-03  -6.162991e-03  0 
 2.693556e-03  -5.042641e-03  0 
 3.151291e-03  -5.396533e-03  0 
 3.512416e-03  -5.641322e-03  0 
 3.783191e-03  -5.800082e-03  0 
 3.903861e-03  -6.017620e-03  0 
 1.786370e-03  -3.910510e-03  0 
 2.916659e-03  -5.427056e-03  0 
 1.971600e-03  -3.734820e-03  0 
 9.708255e-04  -2.373222e-03  0 
 3.028235e-04  -1.703396e-03  0 
 3.073252e-03  -5.860191e-03  0 
 1.858535e-03  -3.544789e-03  0 
 1.146692e-03  -3.126574e-03  0 
 2.627694e-03  -4.789368e-03  0 
 1.473473e-03  -3.144580e-03  0 
 2.400326e-03  -4.897579e-03  0 
 1.234445e-03  -3.079540e-03  0 
 1.811376e-03  -4.102243e-03  0 
 2.675684e-03  -5.338755e-03  0 
 1.435940e-03  -2.922029e-03  0 
 1.949659e-03  -3.874113e-03  0 
 2.299680e-03  -4.648266e-03  0 
 3.465171e-03  -5.614253e-03  0 
 2.574638e-03  -4.537650e-03  0 
 1.792531e-03  -3.572036e-03  0 
 6.870028e-04  -2.024833e-03  0 
 6.338722e-04  -2.339024e-03  0 
 1.237513e-03  -3.174435e-03  0 
 2.201734e-03  -4.539236e-03  0 
 1.043962e-03  -2.519773e-03  0 
 6.625240e-04  -2.305153e-03  0 
 6.662067e-04  -2.065342e-03  0 
 3.266392e-04  -1.760851e-03  0 
 3.048532e-03  -5.114100e-03  0 
 2.459309e-03  -4.421030e-03  0 
 1.459417e-03  -2.777964e-03  0 
 4.694359e-04  -1.619329e-03  0 
 3.435509e-03  -5.984164e-03  0 
 2.173849e-03  -4.136006e-03  0 
VECTORS displacement_ITER10 FLOAT
 4.786767e-04  -1.220856e-03  0 
 1.654608e-03  -2.400048e-03  0 
 1.864262e-03  -4.410704e-03  0 
 3.639281e-03  -6.314252e-03  0 
 7.225786e-05  -1.109996e-03  0 
 8.299688e-05  -1.109554e-03  0 
 1.778644e-04  -1.157973e-03  0 
 3.896080e-04  -1.360596e-03  0 
 7.420954e-04  -1.704853e-03  0 
 9.364651e-04  -1.871424e-03  0 
 1.195623e-03  -2.195630e-03  0 
 1.330063e-03  -2.499336e-03  0 
 1.450381e-03  -2.867619e-03  0 
 1.639452e-03  -3.407525e-03  0 
 2.167632e-03  -3.567717e-03  0 
 2.477451e-03  -4.432214e-03  0 
 2.683350e-03  -5.108708e-03  0 
 2.910282e-03  -5.677730e-03  0 
 3.200660e-03  -6.160081e-03  0 
 2.658134e-03  -4.989725e-03  0 
 3.114896e-03  -5.346176e-03  0 
 3.482048e-03  -5.578515e-03  0 
 3.767010e-03  -5.769161e-03  0 
 3.892793e-03  -6.026438e-03  0 
 1.770585e-03  -3.896511e-03  0 
 2.898625e-03  -5.399308e-03  0 
 1.946267e-03  -3.717750e-03  0 
 9.700928e-04  -2.388256e-03  0 
 3.000754e-04  -1.662245e-03  0 
 3.055698e-03  -5.822594e-03  0 
 1.834976e-03  -3.529153e-03  0 
 1.132948e-03  -3.108477e-03  0 
 2.604935e-03  -4.767112e-03  0 
 1.449762e-03  -3.137533e-03  0 
 2.393162e-03  -4.884465e-03  0 
 1.218122e-03  -3.065320e-03  0 
 1.803863e-03  -4.094873e-03  0 
 2.664149e-03  -5.316163e-03  0 
 1.415713e-03  -2.915448e-03  0 
 1.927980e-03  -3.859026e-03  0 
 2.285841e-03  -4.632215e-03  0 
 3.438386e-03  -5.584120e-03  0 
 2.541387e-03  -4.500565e-03  0 
 1.788436e-03  -3.583361e-03  0 
 6.582837e-04  -2.007086e-03  0 
 6.216313e-04  -2.307459e-03  0 
 1.227665e-03  -3.176851e-03  0 
 2.196334e-03  -4.553508e-03  0 
 1.016534e-03  -2.515372e-03  0 
 6.413685e-04  -2.275616e-03  0 
 6.408201e-04  -2.055141e-03  0 
 3.141121e-04  -1.710759e-03  0 
 3.021350e-03  -5.073636e-03  0 
 2.433337e-03  -4.393652e-03  0 
 1.466934e-03  -2.793745e-03  0 
 4.398159e-04  -1.604804e-03  0 
 3.420947e-03  -5.968761e-03  0 
 2.132535e-03  -4.098025e-03  0 
VECTORS displacement_ITER11 FLOAT
 4.767736e-04  -1.235554e-03  0 
 1.657117e-03  -2.395189e-03  0 
 1.844150e-03  -4.370905e-03  0 
 3.584472e-03  -6.312468e-03  0 
 7.851425e-05  -1.098532e-03  0 
 1.020453e-04  -1.104222e-03  0 
 1.866522e-04  -1.160830e-03  0 
 3.893723e-04  -1.333572e-03  0 
 7.584172e-04  -1.676498e-03  0 
 9.337685e-04  -1.885680e-03  0 
 1.162021e-03  -2.172143e-03  0 
 1.310049e-03  -2.494473e-03  0 
 1.444797e-03  -2.879171e-03  0 
 1.625762e-03  -3.423655e-03  0 
 2.158330e-03  -3.513586e-03  0 
 2.474995e-03  -4.419907e-03  0 
 2.680838e-03  -5.100337e-03  0 
 2.920431e-03  -5.693605e-03  0 
 3.186856e-03  -6.159934e-03  0 
 2.629339e-03  -5.001420e-03  0 
 3.111562e-03  -5.354945e-03  0 
 3.491995e-03  -5.572991e-03  0 
 3.780905e-03  -5.777652e-03  0 
 3.909933e-03  -6.041852e-03  0 
 1.769252e-03  -3.887516e-03  0 
 2.897497e-03  -5.404793e-03  0 
 1.938316e-03  -3.711834e-03  0 
 9.764586e-04  -2.369876e-03  0 
 3.049475e-04  -1.654424e-03  0 
 3.062614e-03  -5.841613e-03  0 
 1.817121e-03  -3.530531e-03  0 
 1.133745e-03  -3.096331e-03  0 
 2.606317e-03  -4.762653e-03  0 
 1.445463e-03  -3.135344e-03  0 
 2.391233e-03  -4.879038e-03  0 
 1.218900e-03  -3.057943e-03  0 
 1.801901e-03  -4.084329e-03  0 
 2.662873e-03  -5.313762e-03  0 
 1.407255e-03  -2.920594e-03  0 
 1.925293e-03  -3.850981e-03  0 
 2.283814e-03  -4.627501e-03  0 
 3.446867e-03  -5.589630e-03  0 
 2.529658e-03  -4.495252e-03  0 
 1.787213e-03  -3.555545e-03  0 
 6.452998e-04  -1.995617e-03  0 
 6.279355e-04  -2.299642e-03  0 
 1.226417e-03  -3.161966e-03  0 
 2.194004e-03  -4.541882e-03  0 
 1.010702e-03  -2.512542e-03  0 
 6.450455e-04  -2.260302e-03  0 
 6.377450e-04  -2.038710e-03  0 
 3.279324e-04  -1.702462e-03  0 
 3.027312e-03  -5.070026e-03  0 
 2.431392e-03  -4.385262e-03  0 
 1.479653e-03  -2.765449e-03  0 
 4.364006e-04  -1.608396e-03  0 
 3.427469e-03  -5.995137e-03  0 
 2.100586e-03  -4.098641e-03  0 
VECTORS displacement_ITER12 FLOAT
 4.714089e-04  -1.240387e-03  0 
 1.690600e-03  -2.358784e-03  0 
 1.844932e-03  -4.376120e-03  0 
 3.578973e-03  -6.340054e-03  0 
 9.081804e-05  -1.105974e-03  0 
 9.888517e-05  -1.109909e-03  0 
 1.973097e-04  -1.180969e-03  0 
 3.896952e-04  -1.350764e-03  0 
 7.381975e-04  -1.685829e-03  0 
 9.283383e-04  -1.891220e-03  0 
 1.144011e-03  -2.166820e-03  0 
 1.288214e-03  -2.490194e-03  0 
 1.424338e-03  -2.861946e-03  0 
 1.610630e-03  -3.390024e-03  0 
 2.147455e-03  -3.528653e-03  0 
 2.451331e-03  -4.422072e-03  0 
 2.657689e-03  -5.083010e-03  0 
 2.896961e-03  -5.683985e-03  0 
 3.170931e-03  -6.146901e-03  0 
 2.630248e-03  -5.012241e-03  0 
 3.113064e-03  -5.351436e-03  0 
 3.480251e-03  -5.559229e-03  0 
 3.755369e-03  -5.755089e-03  0 
 3.906865e-03  -6.022755e-03  0 
 1.767399e-03  -3.884278e-03  0 
 2.880452e-03  -5.389720e-03  0 
 1.934585e-03  -3.706392e-03  0 
 9.635662e-04  -2.377829e-03  0 
 3.065023e-04  -1.653114e-03  0 
 3.044349e-03  -5.826705e-03  0 
 1.807613e-03  -3.518457e-03  0 
 1.133742e-03  -3.096116e-03  0 
 2.602006e-03  -4.757349e-03  0 
 1.440673e-03  -3.129305e-03  0 
 2.379791e-03  -4.872426e-03  0 
 1.217881e-03  -3.054211e-03  0 
 1.796003e-03  -4.082082e-03  0 
 2.643644e-03  -5.300439e-03  0 
 1.394130e-03  -2.912989e-03  0 
 1.923937e-03  -3.846967e-03  0 
 2.277807e-03  -4.622950e-03  0 
 3.427548e-03  -5.567997e-03  0 
 2.532370e-03  -4.493729e-03  0 
 1.774307e-03  -3.567987e-03  0 
 6.400167e-04  -1.992707e-03  0 
 6.298296e-04  -2.299719e-03  0 
 1.221006e-03  -3.164313e-03  0 
 2.183030e-03  -4.538260e-03  0 
 1.003990e-03  -2.507652e-03  0 
 6.478382e-04  -2.267116e-03  0 
 6.376933e-04  -2.048019e-03  0 
 3.306933e-04  -1.711724e-03  0 
 3.023019e-03  -5.064262e-03  0 
 2.430237e-03  -4.382908e-03  0 
 1.464960e-03  -2.782384e-03  0 
 4.387326e-04  -1.615241e-03  0 
 3.409684e-03  -5.980469e-03  0 
 2.098829e-03  -4.094248e-03  0 
VECTORS displacement_ITER13 FLOAT
 4.821393e-04  -1.254330e-03  0 
 1.695486e-03  -2.355494e-03  0 
 1.826469e-03  -4.370833e-03  0 
 3.566943e-03  -6.348293e-03  0 
 1.061779e-04  -1.095916e-03  0 
 9.534053e-05  -1.104497e-03  0 
 1.940488e-04  -1.168410e-03  0 
 3.917318e-04  -1.339022e-03  0 
 7.379998e-04  -1.677328e-03  0 
 9.167588e-04  -1.873115e-03  0 
 1.133597e-03  -2.168563e-03  0 
 1.277586e-03  -2.490660e-03  0 
 1.408637e-03  -2.854995e-03  0 
 1.596136e-03  -3.359142e-03  0 
 2.146755e-03  -3.523972e-03  0 
 2.450508e-03  -4.399462e-03  0 
 2.655781e-03  -5.076143e-03  0 
 2.885070e-03  -5.688874e-03  0 
 3.155697e-03  -6.147253e-03  0 
 2.626662e-03  -4.998383e-03  0 
 3.106522e-03  -5.338006e-03  0 
 3.470652e-03  -5.560003e-03  0 
 3.746012e-03  -5.754720e-03  0 
 3.903577e-03  -6.018653e-03  0 
 1.760735e-03  -3.876264e-03  0 
 2.873195e-03  -5.387288e-03  0 
 1.924048e-03  -3.697717e-03  0 
 9.650251e-04  -2.367031e-03  0 
 3.116934e-04  -1.638872e-03  0 
 3.035097e-03  -5.828723e-03  0 
 1.794404e-03  -3.504514e-03  0 
 1.128878e-03  -3.087242e-03  0 
 2.594424e-03  -4.751243e-03  0 
 1.431727e-03  -3.121677e-03  0 
 2.371931e-03  -4.868236e-03  0 
 1.212171e-03  -3.045436e-03  0 
 1.789850e-03  -4.074919e-03  0 
 2.635166e-03  -5.300684e-03  0 
 1.382230e-03  -2.906234e-03  0 
 1.915542e-03  -3.839152e-03  0 
 2.270684e-03  -4.616922e-03  0 
 3.420667e-03  -5.564446e-03  0 
 2.525007e-03  -4.484474e-03  0 
 1.776846e-03  -3.556504e-03  0 
 6.398396e-04  -1.984693e-03  0 
 6.279952e-04  -2.287478e-03  0 
 1.217893e-03  -3.156627e-03  0 
 2.177198e-03  -4.528668e-03  0 
 9.972478e-04  -2.502929e-03  0 
 6.435618e-04  -2.258864e-03  0 
 6.366227e-04  -2.038669e-03  0 
 3.261049e-04  -1.701817e-03  0 
 3.012424e-03  -5.059941e-03  0 
 2.420691e-03  -4.377255e-03  0 
 1.466421e-03  -2.776988e-03  0 
 4.398251e-04  -1.604228e-03  0 
 3.401698e-03  -5.979995e-03  0 
 2.092017e-03  -4.075317e-03  0 
VECTORS displacement_ITER14 FLOAT
 4.918384e-04  -1.270806e-03  0 
 1.683672e-03  -2.349671e-03  0 
 1.822696e-03  -4.354335e-03  0 
 3.560623e-03  -6.357492e-03  0 
 1.074500e-04  -1.093788e-03  0 
 9.094001e-05  -1.092556e-03  0 
 1.883593e-04  -1.150060e-03  0 
 3.902237e-04  -1.329500e-03  0 
 7.463699e-04  -1.665824e-03  0 
 9.100256e-04  -1.864362e-03  0 
 1.123748e-03  -2.176551e-03  0 
 1.271313e-03  -2.500872e-03  0 
 1.402084e-03  -2.873347e-03  0 
 1.586223e-03  -3.374072e-03  0 
 2.147631e-03  -3.508896e-03  0 
 2.449772e-03  -4.390117e-03  0 
 2.657039e-03  -5.086397e-03  0 
 2.881416e-03  -5.696237e-03  0 
 3.149964e-03  -6.152546e-03  0 
 2.622700e-03  -5.000727e-03  0 
 3.102993e-03  -5.343985e-03  0 
 3.472817e-03  -5.570905e-03  0 
 3.751754e-03  -5.764825e-03  0 
 3.900917e-03  -6.024697e-03  0 
 1.758067e-03  -3.878096e-03  0 
 2.874052e-03  -5.396475e-03  0 
 1.918609e-03  -3.703468e-03  0 
 9.675211e-04  -2.359298e-03  0 
 3.082599e-04  -1.631202e-03  0 
 3.032765e-03  -5.836312e-03  0 
 1.785970e-03  -3.513952e-03  0 
 1.126314e-03  -3.085751e-03  0 
 2.593159e-03  -4.755703e-03  0 
 1.427303e-03  -3.127199e-03  0 
 2.369896e-03  -4.871934e-03  0 
 1.208669e-03  -3.047325e-03  0 
 1.787926e-03  -4.075241e-03  0 
 2.635203e-03  -5.309757e-03  0 
 1.377101e-03  -2.916127e-03  0 
 1.911760e-03  -3.842839e-03  0 
 2.268727e-03  -4.620239e-03  0 
 3.424872e-03  -5.574028e-03  0 
 2.519024e-03  -4.491085e-03  0 
 1.776705e-03  -3.546496e-03  0 
 6.367917e-04  -1.980904e-03  0 
 6.241255e-04  -2.283089e-03  0 
 1.217142e-03  -3.153105e-03  0 
 2.173833e-03  -4.527500e-03  0 
 9.927438e-04  -2.507799e-03  0 
 6.402847e-04  -2.252738e-03  0 
 6.357577e-04  -2.030504e-03  0 
 3.207772e-04  -1.691755e-03  0 
 3.010853e-03  -5.066716e-03  0 