# vtk DataFile Version 3.1
this is an vtk file created by FEMAC
ASCII
DATASET UNSTRUCTURED_GRID
POINTS 60 FLOAT
4.000000 2.000000 0.000000
4.000000 3.000000 0.000000
5.000000 2.000000 0.000000
5.000000 3.000000 0.000000
4.000000 2.166667 0.000000
4.000000 2.333333 0.000000
4.000000 2.500000 0.000000
4.000000 2.666667 0.000000
4.000000 2.833333 0.000000
4.166667 2.000000 0.000000
4.333333 2.000000 0.000000
4.500000 2.000000 0.000000
4.666667 2.000000 0.000000
4.833333 2.000000 0.000000
4.166667 3.000000 0.000000
4.333333 3.000000 0.000000
4.500000 3.000000 0.000000
4.666667 3.000000 0.000000
4.833333 3.000000 0.000000
5.000000 2.166667 0.000000
5.000000 2.333333 0.000000
5.000000 2.500000 0.000000
5.000000 2.666667 0.000000
5.000000 2.833333 0.000000
4.549603 2.613228 0.000000
4.353651 2.398223 0.000000
4.693117 2.724591 0.000000
4.276546 2.704494 0.000000
4.865918 2.767554 0.000000
4.131628 2.759088 0.000000
4.519490 2.344099 0.000000
4.501245 2.767522 0.000000
4.702841 2.519576 0.000000
4.300471 2.534075 0.000000
4.590314 2.460008 0.000000
4.433983 2.513802 0.000000
4.838150 2.583568 0.000000
4.153052 2.581911 0.000000
4.763208 2.884224 0.000000
4.255897 2.865916 0.000000
4.842504 2.224137 0.000000
4.373387 2.262220 0.000000
4.658551 2.217359 0.000000
4.412518 2.661897 0.000000
4.510700 2.206588 0.000000
4.583696 2.110924 0.000000
4.419394 2.122989 0.000000
4.189552 2.378673 0.000000
4.854858 2.411659 0.000000
4.374342 2.780369 0.000000
4.591624 2.879726 0.000000
4.236566 2.159112 0.000000
4.892492 2.897022 0.000000
4.106594 2.891774 0.000000
4.749262 2.109067 0.000000
4.426074 2.882255 0.000000
4.694760 2.362806 0.000000
4.885020 2.099974 0.000000
4.101890 2.224224 0.000000
4.101025 2.110000 0.000000
CELLS 94 376 
3 29  8  7
3 23 28 22
3 31 24 26
3 32 26 24
3 24 34 32
3 25 35 33
3 35 25 30
3 36 22 28
3 26 36 28
3 7 37 29
3 37 27 29
3 17 38 18
3 20 40 19
3 43 24 31
3 43 27 33
3 35 34 24
3 30 34 35
3 43 35 24
3 33 35 43
3 36 21 22
3 26 32 36
3 6 37  7
3 33 27 37
3 39 15 14
3 39 29 27
3 30 25 41
3 38 26 28
3 44 42 30
3 41 44 30
3 45 11 12
3 45 42 44
3 11 46 10
3 41 46 44
3 25 47 41
3 31 49 43
3 50 17 16
3 17 50 38
3 18 52  3
3 52 23  3
3 8 53  1
3 53 14  1
3 51  9 10
3 27 49 39
3 27 43 49
3 46 51 10
3 46 41 51
3 26 50 31
3 26 38 50
3 45 46 11
3 45 44 46
3 51 41 47
3 52 18 38
3 28 52 38
3 52 28 23
3 14 53 39
3 53 29 39
3 29 53  8
3 47  6  5
3 33 47 25
3 6 47 37
3 33 37 47
3 40 20 48
3 21 48 20
3 48 21 36
3 36 32 48
3 13 54 12
3 42 54 40
3 55 16 15
3 55 49 31
3 56 42 40
3 48 56 40
3 57 13  2
3 57 19 40
3 19 57  2
3 54 45 12
3 42 45 54
3 39 55 15
3 39 49 55
3 57 54 13
3 40 54 57
3 55 50 16
3 31 50 55
3 56 34 30
3 30 42 56
3 34 56 32
3 48 32 56
3 4 58  5
3 47 58 51
3 58 47  5
3 59  4  0
3 9 59  0
3 4 59 58
3 59 51 58
3 51 59  9
CELL_TYPES 94
5 5 5 5 5 5 5 5 5 5 5 5 5 5 5 5 5 5 5 5 5 5 5 5 5 5 5 5 5 5 5 5 5 5 5 5 5 5 5 5 5 5 5 5 5 5 5 5 5 5 5 5 5 5 5 5 5 5 5 5 5 5 5 5 5 5 5 5 5 5 5 5 5 5 5 5 5 5 5 5 5 5 5 5 5 5 5 5 5 5 5 5 5 5 
POINT_DATA 60
VECTORS displacement_ITER1 FLOAT
 -2.568531e-03  -1.554996e-02  0 
 3.694662e-03  -1.546178e-02  0 
 -2.806006e-03  -2.253947e-02  0 
 3.822455e-03  -2.246827e-02  0 
 -1.591877e-03  -1.566557e-02  0 
 -5.387851e-04  -1.569538e-02  0 
 5.301737e-04  -1.570015e-02  0 
 1.597558e-03  -1.568091e-02  0 
 2.666584e-03  -1.562370e-02  0 
 -2.658733e-03  -1.675326e-02  0 
 -2.702061e-03  -1.788289e-02  0 
 -2.731932e-03  -1.900649e-02  0 
 -2.759777e-03  -2.013282e-02  0 
 -2.789693e-03  -2.128972e-02  0 
 3.746509e-03  -1.671113e-02  0 
 3.773145e-03  -1.786718e-02  0 
 3.791413e-03  -1.899925e-02  0 
 3.805215e-03  -2.012316e-02  0 
 3.818206e-03  -2.126088e-02  0 
 -1.666629e-03  -2.240498e-02  0 
 -5.602420e-04  -2.233748e-02  0 
 5.314845e-04  -2.231147e-02  0 
 1.620722e-03  -2.232127e-02  0 
 2.712339e-03  -2.236542e-02  0 
 1.250849e-03  -1.930382e-02  0 
 -1.175421e-04  -1.799143e-02  0 
 1.975871e-03  -2.028171e-02  0 
 1.823489e-03  -1.747142e-02  0 
 2.264993e-03  -2.145333e-02  0 
 2.172514e-03  -1.649989e-02  0 
 -4.613226e-04  -1.909790e-02  0 
 2.244398e-03  -1.898373e-02  0 
 6.573493e-04  -2.033195e-02  0 
 7.446740e-04  -1.764153e-02  0 
 2.779990e-04  -1.957608e-02  0 
 6.172289e-04  -1.852805e-02  0 
 1.072452e-03  -2.124138e-02  0 
 1.048227e-03  -1.667639e-02  0 
 3.027759e-03  -2.077171e-02  0 
 2.854638e-03  -1.731650e-02  0 
 -1.258416e-03  -2.131167e-02  0 
 -9.782552e-04  -1.811293e-02  0 
 -1.297200e-03  -2.005499e-02  0 
 1.556538e-03  -1.837996e-02  0 
 -1.358564e-03  -1.905070e-02  0 
 -1.999894e-03  -1.955507e-02  0 
 -1.898367e-03  -1.844328e-02  0 
 -2.418089e-04  -1.691444e-02  0 
 -3.920893e-05  -2.135696e-02  0 
 2.314226e-03  -1.812197e-02  0 
 2.992285e-03  -1.960716e-02  0 
 -1.625475e-03  -1.719466e-02  0 
 3.113866e-03  -2.166507e-02  0 
 3.003224e-03  -1.627836e-02  0 
 -2.022182e-03  -2.068626e-02  0 
 2.992992e-03  -1.848590e-02  0 
 -3.466556e-04  -2.028770e-02  0 
 -2.088762e-03  -2.164472e-02  0 
 -1.219362e-03  -1.632102e-02  0 
 -1.912707e-03  -1.627029e-02  0 
VECTORS displacement_ITER2 FLOAT
 -1.928612e-03  -1.178283e-02  0 
 2.621283e-03  -1.169374e-02  0 
 -2.201764e-03  -1.719370e-02  0 
 2.783676e-03  -1.708545e-02  0 
 -1.233955e-03  -1.191682e-02  0 
 -4.640657e-04  -1.194435e-02  0 
 3.240914e-04  -1.195359e-02  0 
 1.107243e-03  -1.193472e-02  0 
 1.886796e-03  -1.188194e-02  0 
 -2.021872e-03  -1.272652e-02  0 
 -2.070386e-03  -1.357786e-02  0 
 -2.105940e-03  -1.442618e-02  0 
 -2.137882e-03  -1.527608e-02  0 
 -2.174769e-03  -1.616803e-02  0 
 2.684448e-03  -1.269486e-02  0 
 2.716680e-03  -1.356923e-02  0 
 2.739277e-03  -1.441575e-02  0 
 2.757613e-03  -1.525635e-02  0 
 2.774534e-03  -1.612449e-02  0 
 -1.316995e-03  -1.700956e-02  0 
 -4.912278e-04  -1.692265e-02  0 
 3.171729e-04  -1.688981e-02  0 
 1.127900e-03  -1.689990e-02  0 
 1.942185e-03  -1.695299e-02  0 
 8.503170e-04  -1.463643e-02  0 
 -1.521205e-04  -1.365034e-02  0 
 1.385343e-03  -1.537451e-02  0 
 1.267966e-03  -1.325836e-02  0 
 1.601350e-03  -1.625988e-02  0 
 1.522353e-03  -1.252985e-02  0 
 -4.045711e-04  -1.448215e-02  0 
 1.583358e-03  -1.439497e-02  0 
 4.148581e-04  -1.541049e-02  0 
 4.800680e-04  -1.338909e-02  0 
 1.384585e-04  -1.484320e-02  0 
 3.866532e-04  -1.405354e-02  0 
 7.194981e-04  -1.609219e-02  0 
 7.023424e-04  -1.267123e-02  0 
 2.169588e-03  -1.574766e-02  0 
 2.021052e-03  -1.314045e-02  0 
 -9.994372e-04  -1.616941e-02  0 
 -7.835521e-04  -1.373797e-02  0 
 -1.028668e-03  -1.521187e-02  0 
 1.074050e-03  -1.393941e-02  0 
 -1.072342e-03  -1.444950e-02  0 
 -1.556685e-03  -1.483415e-02  0 
 -1.472554e-03  -1.399321e-02  0 
 -2.427793e-04  -1.284722e-02  0 
 -1.003766e-04  -1.618423e-02  0 
 1.629863e-03  -1.374510e-02  0 
 2.143326e-03  -1.486678e-02  0 
 -1.256230e-03  -1.304653e-02  0 
 2.234044e-03  -1.643396e-02  0 
 2.116916e-03  -1.234930e-02  0 
 -1.574809e-03  -1.569524e-02  0 
 2.137959e-03  -1.402534e-02  0 
 -3.216109e-04  -1.538416e-02  0 
 -1.625047e-03  -1.644174e-02  0 
 -9.600863e-04  -1.239842e-02  0 
 -1.456194e-03  -1.234743e-02  0 
VECTORS displacement_ITER3 FLOAT
 -2.105512e-03  -1.091914e-02  0 
 1.689505e-03  -1.086320e-02  0 
 -2.357898e-03  -1.560360e-02  0 
 1.866394e-03  -1.548058e-02  0 
 -1.531001e-03  -1.105417e-02  0 
 -8.850653e-04  -1.107963e-02  0 
 -2.202895e-04  -1.109427e-02  0 
 4.394037e-04  -1.108034e-02  0 
 1.090957e-03  -1.103758e-02  0 
 -2.197204e-03  -1.174229e-02  0 
 -2.245473e-03  -1.246951e-02  0 
 -2.279679e-03  -1.319613e-02  0 
 -2.307367e-03  -1.392617e-02  0 
 -2.337252e-03  -1.469667e-02  0 
 1.762999e-03  -1.172431e-02  0 
 1.800822e-03  -1.246945e-02  0 
 1.825580e-03  -1.319306e-02  0 
 1.843198e-03  -1.391149e-02  0 
 1.859154e-03  -1.465029e-02  0 
 -1.610458e-03  -1.541145e-02  0 
 -9.086243e-04  -1.532500e-02  0 
 -2.238796e-04  -1.529172e-02  0 
 4.635001e-04  -1.530044e-02  0 
 1.151922e-03  -1.535156e-02  0 
 2.253070e-04  -1.337413e-02  0 
 -6.174792e-04  -1.253208e-02  0 
 6.773594e-04  -1.400566e-02  0 
 5.740722e-04  -1.219942e-02  0 
 8.616403e-04  -1.476150e-02  0 
 7.869143e-04  -1.157991e-02  0 
 -8.288753e-04  -1.324268e-02  0 
 8.421705e-04  -1.316951e-02  0 
 -1.402097e-04  -1.403413e-02  0 
 -8.629789e-05  -1.231107e-02  0 
 -3.720787e-04  -1.355092e-02  0 
 -1.641061e-04  -1.287696e-02  0 
 1.168865e-04  -1.461457e-02  0 
 9.933241e-05  -1.170227e-02  0 
 1.342446e-03  -1.432755e-02  0 
 1.205201e-03  -1.209739e-02  0 
 -1.334560e-03  -1.469176e-02  0 
 -1.148994e-03  -1.260418e-02  0 
 -1.358180e-03  -1.387105e-02  0 
 4.122490e-04  -1.277932e-02  0 
 -1.395444e-03  -1.321560e-02  0 
 -1.808584e-03  -1.354644e-02  0 
 -1.736039e-03  -1.282384e-02  0 
 -6.949367e-04  -1.184787e-02  0 
 -5.756670e-04  -1.469510e-02  0 
 8.788758e-04  -1.261354e-02  0 
 1.318551e-03  -1.357574e-02  0 
 -1.548091e-03  -1.201058e-02  0 
 1.396615e-03  -1.491448e-02  0 
 1.278395e-03  -1.142255e-02  0 
 -1.821963e-03  -1.428839e-02  0 
 1.310719e-03  -1.285585e-02  0 
 -7.598935e-04  -1.401504e-02  0 
 -1.862848e-03  -1.493511e-02  0 
 -1.300419e-03  -1.146052e-02  0 
 -1.711993e-03  -1.141110e-02  0 
VECTORS displacement_ITER4 FLOAT
 -1.972802e-03  -1.086041e-02  0 
 1.230581e-03  -1.082796e-02  0 
 -2.221152e-03  -1.497177e-02  0 
 1.413269e-03  -1.482275e-02  0 
 -1.491286e-03  -1.098991e-02  0 
 -9.408476e-04  -1.101757e-02  0 
 -3.705072e-04  -1.103411e-02  0 
 1.952742e-04  -1.102312e-02  0 
 7.456169e-04  -1.098384e-02  0 
 -2.064274e-03  -1.158557e-02  0 
 -2.110206e-03  -1.221620e-02  0 
 -2.143524e-03  -1.284674e-02  0 
 -2.171936e-03  -1.348196e-02  0 
 -2.202894e-03  -1.415546e-02  0 
 1.315423e-03  -1.157434e-02  0 
 1.356651e-03  -1.221497e-02  0 
 1.380685e-03  -1.283911e-02  0 
 1.397515e-03  -1.345963e-02  0 
 1.411193e-03  -1.409763e-02  0 
 -1.570153e-03  -1.477659e-02  0 
 -9.645689e-04  -1.468811e-02  0 
 -3.755907e-04  -1.465256e-02  0 
 2.137976e-04  -1.465770e-02  0 
 8.036492e-04  -1.470375e-02  0 
 9.553055e-06  -1.299519e-02  0 
 -7.089801e-04  -1.226827e-02  0 
 3.958033e-04  -1.354136e-02  0 
 3.061204e-04  -1.197989e-02  0 
 5.537667e-04  -1.419486e-02  0 
 4.875426e-04  -1.144544e-02  0 
 -8.896744e-04  -1.288291e-02  0 
 5.360567e-04  -1.281758e-02  0 
 -3.021901e-04  -1.356671e-02  0 
 -2.551457e-04  -1.207810e-02  0 
 -4.992548e-04  -1.314962e-02  0 
 -3.217673e-04  -1.256625e-02  0 
 -8.283183e-05  -1.406769e-02  0 
 -9.668180e-05  -1.155536e-02  0 
 9.657441e-04  -1.381979e-02  0 
 8.421371e-04  -1.188933e-02  0 
 -1.326628e-03  -1.414660e-02  0 
 -1.163485e-03  -1.232912e-02  0 
 -1.346475e-03  -1.343077e-02  0 
 1.686187e-04  -1.248032e-02  0 
 -1.377790e-03  -1.286076e-02  0 
 -1.736039e-03  -1.314918e-02  0 
 -1.670879e-03  -1.252155e-02  0 
 -7.753355e-04  -1.167826e-02  0 
 -6.758773e-04  -1.414065e-02  0 
 5.658152e-04  -1.233612e-02  0 
 9.452508e-04  -1.316931e-02  0 
 -1.504606e-03  -1.181430e-02  0 
 1.011056e-03  -1.432916e-02  0 
 8.983167e-04  -1.130557e-02  0 
 -1.748670e-03  -1.379611e-02  0 
 9.369528e-04  -1.254703e-02  0 
 -8.313224e-04  -1.355373e-02  0 
 -1.783592e-03  -1.436657e-02  0 
 -1.293427e-03  -1.133991e-02  0 
 -1.641630e-03  -1.129190e-02  0 
VECTORS displacement_ITER5 FLOAT
 -2.038422e-03  -1.079336e-02  0 
 1.006782e-03  -1.077525e-02  0 
 -2.276814e-03  -1.474772e-02  0 
 1.177152e-03  -1.457698e-02  0 
 -1.575926e-03  -1.092618e-02  0 
 -1.049514e-03  -1.096060e-02  0 
 -5.082871e-04  -1.097754e-02  0 
 2.905125e-05  -1.096702e-02  0 
 5.518114e-04  -1.092596e-02  0 
 -2.125435e-03  -1.149626e-02  0 
 -2.167604e-03  -1.210223e-02  0 
 -2.198830e-03  -1.270646e-02  0 
 -2.227589e-03  -1.331562e-02  0 
 -2.259967e-03  -1.396125e-02  0 
 1.094131e-03  -1.148875e-02  0 
 1.134040e-03  -1.210042e-02  0 
 1.156300e-03  -1.269706e-02  0 
 1.171100e-03  -1.328967e-02  0 
 1.181954e-03  -1.389601e-02  0 
 -1.654998e-03  -1.455361e-02  0 
 -1.076634e-03  -1.446403e-02  0 
 -5.149746e-04  -1.442676e-02  0 
 4.657514e-05  -1.442907e-02  0 
 6.075068e-04  -1.447073e-02  0 
 -1.474046e-04  -1.284519e-02  0 
 -8.294941e-04  -1.215177e-02  0 
 2.197663e-04  -1.336643e-02  0 
 1.332971e-04  -1.187659e-02  0 
 3.701896e-04  -1.398844e-02  0 
 3.055596e-04  -1.136648e-02  0 
 -1.001745e-03  -1.273888e-02  0 
 3.522452e-04  -1.267640e-02  0 
 -4.435568e-04  -1.339071e-02  0 
 -3.985664e-04  -1.197035e-02  0 
 -6.305868e-04  -1.299307e-02  0 
 -4.618051e-04  -1.243597e-02  0 
 -2.351422e-04  -1.386804e-02  0 
 -2.484283e-04  -1.147282e-02  0 
 7.607199e-04  -1.363254e-02  0 
 6.425491e-04  -1.178942e-02  0 
 -1.420109e-03  -1.394928e-02  0 
 -1.261912e-03  -1.221005e-02  0 
 -1.438113e-03  -1.326391e-02  0 
 3.161568e-06  -1.235400e-02  0 
 -1.467269e-03  -1.271887e-02  0 
 -1.809695e-03  -1.299538e-02  0 
 -1.746657e-03  -1.239503e-02  0 
 -8.919862e-04  -1.158877e-02  0 
 -8.000559e-04  -1.393983e-02  0 
 3.801033e-04  -1.221654e-02  0 
 7.412538e-04  -1.301263e-02  0 
 -1.586614e-03  -1.171776e-02  0 
 8.033522e-04  -1.411656e-02  0 
 6.952484e-04  -1.123030e-02  0 
 -1.822954e-03  -1.361491e-02  0 
 7.333936e-04  -1.241827e-02  0 
 -9.469122e-04  -1.338003e-02  0 
 -1.857068e-03  -1.416334e-02  0 
 -1.384978e-03  -1.126430e-02  0 
 -1.718494e-03  -1.121455e-02  0 
VECTORS displacement_ITER6 FLOAT
 -2.018454e-03  -1.077513e-02  0 
 9.145160e-04  -1.076624e-02  0 
 -2.249877e-03  -1.461390e-02  0 
 1.075658e-03  -1.442749e-02  0 
 -1.570707e-03  -1.090954e-02  0 
 -1.063495e-03  -1.094634e-02  0 
 -5.421419e-04  -1.096417e-02  0 
 -2.573130e-05  -1.095412e-02  0 
 4.777291e-04  -1.091326e-02  0 
 -2.101676e-03  -1.146079e-02  0 
 -2.142995e-03  -1.204816e-02  0 
 -2.172990e-03  -1.263143e-02  0 
 -2.201350e-03  -1.321926e-02  0 
 -2.233669e-03  -1.384599e-02  0 
 1.000128e-03  -1.145619e-02  0 
 1.038680e-03  -1.204730e-02  0 
 1.060256e-03  -1.262270e-02  0 
 1.074065e-03  -1.319198e-02  0 
 1.082702e-03  -1.377446e-02  0 
 -1.648990e-03  -1.441784e-02  0 
 -1.090124e-03  -1.432831e-02  0 
 -5.485899e-04  -1.428992e-02  0 
 -8.000826e-06  -1.428981e-02  0 
 5.305079e-04  -1.432747e-02  0 
 -1.941036e-04  -1.276440e-02  0 
 -8.507223e-04  -1.209500e-02  0 
 1.592042e-04  -1.326693e-02  0 
 7.502987e-05  -1.183039e-02  0 
 3.034690e-04  -1.386535e-02  0 
 2.402843e-04  -1.133857e-02  0 
 -1.016515e-03  -1.266188e-02  0 
 2.863761e-04  -1.260185e-02  0 
 -4.789572e-04  -1.329070e-02  0 
 -4.361513e-04  -1.192030e-02  0 
 -6.589667e-04  -1.290723e-02  0 
 -4.966962e-04  -1.236947e-02  0 
 -2.784578e-04  -1.375060e-02  0 
 -2.922111e-04  -1.144094e-02  0 
 6.788911e-04  -1.352257e-02  0 
 5.647273e-04  -1.174665e-02  0 
 -1.420554e-03  -1.383270e-02  0 
 -1.267292e-03  -1.215095e-02  0 
 -1.437861e-03  -1.316985e-02  0 
 -4.962430e-05  -1.229065e-02  0 
 -1.466108e-03  -1.264295e-02  0 
 -1.797059e-03  -1.291009e-02  0 
 -1.735894e-03  -1.233052e-02  0 
 -9.109269e-04  -1.155177e-02  0 
 -8.227293e-04  -1.382136e-02  0 
 3.126859e-04  -1.215846e-02  0 
 6.607960e-04  -1.292606e-02  0 
 -1.580190e-03  -1.167518e-02  0 
 7.188588e-04  -1.398741e-02  0 
 6.152290e-04  -1.120623e-02  0 
 -1.809378e-03  -1.350951e-02  0 
 6.528648e-04  -1.235351e-02  0 
 -9.637839e-04  -1.328139e-02  0 
 -1.842291e-03  -1.404226e-02  0 
 -1.385919e-03  -1.123729e-02  0 
 -1.707386e-03  -1.118767e-02  0 
VECTORS displacement_ITER7 FLOAT
 -1.993348e-03  -1.080038e-02  0 
 8.285467e-04  -1.079056e-02  0 
 -2.229906e-03  -1.452977e-02  0 
 9.797199e-04  -1.432440e-02  0 
 -1.563173e-03  -1.093456e-02  0 
 -1.076521e-03  -1.096969e-02  0 
 -5.737724e-04  -1.098781e-02  0 
 -7.523054e-05  -1.097719e-02  0 
 4.097893e-04  -1.093683e-02  0 
 -2.075055e-03  -1.146691e-02  0 
 -2.117234e-03  -1.203385e-02  0 
 -2.148422e-03  -1.259778e-02  0 
 -2.178006e-03  -1.316739e-02  0 
 -2.211803e-03  -1.377718e-02  0 
 9.131691e-04  -1.146099e-02  0 
 9.513203e-04  -1.203317e-02  0 
 9.723110e-04  -1.258853e-02  0 
 9.840027e-04  -1.313818e-02  0 
 9.899325e-04  -1.369916e-02  0 
 -1.643843e-03  -1.433153e-02  0 
 -1.102287e-03  -1.423991e-02  0 
 -5.792279e-04  -1.419970e-02  0 
 -5.809185e-05  -1.419749e-02  0 
 4.597117e-04  -1.423134e-02  0 
 -2.373495e-04  -1.272574e-02  0 
 -8.704029e-04  -1.207821e-02  0 
 1.031568e-04  -1.321132e-02  0 
 2.121497e-05  -1.182313e-02  0 
 2.419982e-04  -1.378800e-02  0 
 1.806122e-04  -1.134748e-02  0 
 -1.029818e-03  -1.262595e-02  0 
 2.252290e-04  -1.256899e-02  0 
 -5.113319e-04  -1.323423e-02  0 
 -4.710700e-04  -1.191001e-02  0 
 -6.848867e-04  -1.286359e-02  0 
 -5.290206e-04  -1.234384e-02  0 
 -3.181652e-04  -1.367822e-02  0 
 -3.326717e-04  -1.144744e-02  0 
 6.029122e-04  -1.345781e-02  0 
 4.929545e-04  -1.174159e-02  0 
 -1.420701e-03  -1.376157e-02  0 
 -1.271873e-03  -1.213151e-02  0 
 -1.437295e-03  -1.311827e-02  0 
 -9.863870e-05  -1.226794e-02  0 
 -1.464418e-03  -1.260775e-02  0 
 -1.785041e-03  -1.286672e-02  0 
 -1.724822e-03  -1.230567e-02  0 
 -9.287760e-04  -1.155372e-02  0 
 -8.431128e-04  -1.374812e-02  0 
 2.502970e-04  -1.214003e-02  0 
 5.861158e-04  -1.288234e-02  0 
 -1.573060e-03  -1.167184e-02  0 
 6.405332e-04  -1.390487e-02  0 
 5.409052e-04  -1.121825e-02  0 
 -1.797672e-03  -1.344837e-02  0 
 5.787825e-04  -1.232881e-02  0 
 -9.788234e-04  -1.322594e-02  0 
 -1.830315e-03  -1.396750e-02  0 
 -1.386087e-03  -1.124949e-02  0 
 -1.693899e-03  -1.120144e-02  0 
VECTORS displacement_ITER8 FLOAT
 -2.006376e-03  -1.073610e-02  0 
 8.517334e-04  -1.071833e-02  0 
 -2.246612e-03  -1.449597e-02  0 
 9.970219e-04  -1.428249e-02  0 
 -1.570629e-03  -1.086868e-02  0 
 -1.078220e-03  -1.090200e-02  0 
 -5.698552e-04  -1.091904e-02  0 
 -6.615011e-05  -1.090815e-02  0 
 4.244528e-04  -1.086762e-02  0 
 -2.087967e-03  -1.140616e-02  0 
 -2.130185e-03  -1.197771e-02  0 
 -2.162079e-03  -1.254735e-02  0 
 -2.192198e-03  -1.312274e-02  0 
 -2.226878e-03  -1.373748e-02  0 
 9.338622e-04  -1.139699e-02  0 
 9.714909e-04  -1.197546e-02  0 
 9.920369e-04  -1.253699e-02  0 
 1.003454e-03  -1.309220e-02  0 
 1.008428e-03  -1.365741e-02  0 
 -1.652758e-03  -1.429769e-02  0 
 -1.105387e-03  -1.420555e-02  0 
 -5.766533e-04  -1.416506e-02  0 
 -4.938948e-05  -1.416226e-02  0 
 4.740300e-04  -1.419421e-02  0 
 -2.303024e-04  -1.267553e-02  0 
 -8.707814e-04  -1.202197e-02  0 
 1.141602e-04  -1.316571e-02  0 
 3.138739e-05  -1.176374e-02  0 
 2.546213e-04  -1.374759e-02  0 
 1.926932e-04  -1.128303e-02  0 
 -1.032231e-03  -1.257512e-02  0 
 2.374203e-04  -1.251734e-02  0 
 -5.076082e-04  -1.318920e-02  0 
 -4.667527e-04  -1.185172e-02  0 
 -6.832498e-04  -1.281491e-02  0 
 -5.254482e-04  -1.228997e-02  0 
 -3.122529e-04  -1.363755e-02  0 
 -3.264376e-04  -1.138384e-02  0 
 6.191059e-04  -1.341454e-02  0 
 5.085390e-04  -1.168140e-02  0 
 -1.427553e-03  -1.372173e-02  0 
 -1.276933e-03  -1.207631e-02  0 
 -1.444202e-03  -1.307214e-02  0 
 -9.001451e-05  -1.221329e-02  0 
 -1.471357e-03  -1.255690e-02  0 
 -1.795310e-03  -1.281863e-02  0 
 -1.734275e-03  -1.225202e-02  0 
 -9.296213e-04  -1.149228e-02  0 
 -8.433944e-04  -1.370856e-02  0 
 2.629355e-04  -1.208405e-02  0 
 6.019743e-04  -1.283381e-02  0 
 -1.581387e-03  -1.161280e-02  0 
 6.571651e-04  -1.386437e-02  0 
 5.576457e-04  -1.115283e-02  0 
 -1.808691e-03  -1.340553e-02  0 
 5.947358e-04  -1.227466e-02  0 
 -9.807045e-04  -1.318089e-02  0 
 -1.842046e-03  -1.392900e-02  0 
 -1.392018e-03  -1.118617e-02  0 
 -1.703635e-03  -1.113890e-02  0 
VECTORS displacement_ITER9 FLOAT
 -2.023482e-03  -1.075729e-02  0 
 8.030350e-04  -1.072751e-02  0 
 -2.270240e-03  -1.448142e-02  0 
 9.445146e-04  -1.426245e-02  0 
 -1.596853e-03  -1.088447e-02  0 
 -1.110041e-03  -1.091520e-02  0 
 -6.068780e-04  -1.093132e-02  0 
 -1.076229e-04  -1.092007e-02  0 
 3.790673e-04  -1.087867e-02  0 
 -2.107473e-03  -1.141613e-02  0 
 -2.150986e-03  -1.198089e-02  0 
 -2.183828e-03  -1.254450e-02  0 
 -2.214520e-03  -1.311479e-02  0 
 -2.249682e-03  -1.372548e-02  0 
 8.838480e-04  -1.140318e-02  0 
 9.212114e-04  -1.197790e-02  0 
 9.410226e-04  -1.253491e-02  0 
 9.518929e-04  -1.308518e-02  0 
 9.563760e-04  -1.364452e-02  0 
 -1.679593e-03  -1.428150e-02  0 
 -1.136758e-03  -1.418901e-02  0 
 -6.129190e-04  -1.414829e-02  0 
 -9.061830e-05  -1.414511e-02  0 
 4.274116e-04  -1.417625e-02  0 
 -2.701516e-04  -1.267207e-02  0 
 -9.048270e-04  -1.202410e-02  0 
 7.123820e-05  -1.315796e-02  0 
 -1.123893e-05  -1.176813e-02  0 
 2.104028e-04  -1.373429e-02  0 
 1.487353e-04  -1.129122e-02  0 
 -1.064446e-03  -1.257208e-02  0 
 1.930803e-04  -1.251549e-02  0 
 -5.445447e-04  -1.318105e-02  0 
 -5.047252e-04  -1.185553e-02  0 
 -7.186414e-04  -1.281002e-02  0 
 -5.626646e-04  -1.228980e-02  0 
 -3.509471e-04  -1.362540e-02  0 
 -3.657253e-04  -1.139179e-02  0 
 5.713049e-04  -1.340444e-02  0 
 4.616167e-04  -1.168600e-02  0 
 -1.455851e-03  -1.370941e-02  0 
 -1.306998e-03  -1.207766e-02  0 
 -1.472514e-03  -1.306474e-02  0 
 -1.314350e-04  -1.221391e-02  0 
 -1.499542e-03  -1.255379e-02  0 
 -1.820629e-03  -1.281312e-02  0 
 -1.759872e-03  -1.225169e-02  0 
 -9.633145e-04  -1.149955e-02  0 
 -8.770769e-04  -1.369599e-02  0 
 2.181997e-04  -1.208572e-02  0 
 5.543456e-04  -1.282927e-02  0 
 -1.608142e-03  -1.161897e-02  0 
 6.088231e-04  -1.384958e-02  0 
 5.104654e-04  -1.116105e-02  0 
 -1.833932e-03  -1.339546e-02  0 
 5.472228e-04  -1.227494e-02  0 
 -1.013135e-03  -1.317279e-02  0 
 -1.867087e-03  -1.391570e-02  0 
 -1.420810e-03  -1.119721e-02  0 
 -1.728134e-03  -1.115109e-02  0 
VECTORS displacement_ITER10 FLOAT
 -2.016835e-03  -1.074394e-02  0 
 8.187575e-04  -1.069670e-02  0 
 -2.273103e-03  -1.447282e-02  0 
 9.584408e-04  -1.425306e-02  0 
 -1.593453e-03  -1.086545e-02  0 
 -1.105351e-03  -1.089376e-02  0 
 -6.005922e-04  -1.090788e-02  0 
 -9.911311e-05  -1.089492e-02  0 
 3.903737e-04  -1.085113e-02  0 
 -2.104180e-03  -1.139801e-02  0 
 -2.149177e-03  -1.196333e-02  0 
 -2.183277e-03  -1.252873e-02  0 
 -2.215067e-03  -1.310105e-02  0 
 -2.251306e-03  -1.371402e-02  0 
 8.984827e-04  -1.137895e-02  0 
 9.350724e-04  -1.195735e-02  0 
 9.543932e-04  -1.251754e-02  0 
 9.654673e-04  -1.307069e-02  0 
 9.702527e-04  -1.363297e-02  0 
 -1.678362e-03  -1.427244e-02  0 
 -1.133235e-03  -1.417922e-02  0 
 -6.072007e-04  -1.413844e-02  0 
 -8.248800e-05  -1.413561e-02  0 
 4.385310e-04  -1.416727e-02  0 
 -2.630462e-04  -1.265564e-02  0 
 -9.005038e-04  -1.200534e-02  0 
 8.014207e-05  -1.314370e-02  0 
 -2.874920e-06  -1.174726e-02  0 
 2.201380e-04  -1.372277e-02  0 
 1.581255e-04  -1.126738e-02  0 
 -1.060753e-03  -1.255530e-02  0 
 2.025827e-04  -1.249828e-02  0 
 -5.386481e-04  -1.316687e-02  0 
 -4.987963e-04  -1.183569e-02  0 
 -7.135510e-04  -1.279419e-02  0 
 -5.569933e-04  -1.227180e-02  0 
 -3.441211e-04  -1.361328e-02  0 
 -3.589090e-04  -1.136962e-02  0 
 5.829979e-04  -1.339140e-02  0 
 4.728562e-04  -1.166434e-02  0 
 -1.453672e-03  -1.369735e-02  0 
 -1.303986e-03  -1.205940e-02  0 
 -1.470326e-03  -1.304987e-02  0 
 -1.237068e-04  -1.219536e-02  0 
 -1.497193e-03  -1.253708e-02  0 
 -1.819475e-03  -1.279762e-02  0 
 -1.757945e-03  -1.223422e-02  0 
 -9.590895e-04  -1.147927e-02  0 
 -8.725152e-04  -1.368404e-02  0 
 2.278586e-04  -1.206643e-02  0 
 5.657743e-04  -1.281344e-02  0 
 -1.605581e-03  -1.160002e-02  0 
 6.210289e-04  -1.383876e-02  0 
 5.224621e-04  -1.113561e-02  0 
 -1.833447e-03  -1.338212e-02  0 
 5.586646e-04  -1.225648e-02  0 
 -1.009192e-03  -1.315845e-02  0 
 -1.867170e-03  -1.390445e-02  0 
 -1.417556e-03  -1.117759e-02  0 
 -1.725216e-03  -1.113234e-02  0 
VECTORS displacement_ITER11 FLOAT
 -2.005805e-03  -1.073382e-02  0 
 8.320205e-04  -1.067496e-02  0 
 -2.267280e-03  -1.446354e-02  0 
 9.709370e-04  -1.424473e-02  0 
 -1.585239e-03  -1.085231e-02  0 
 -1.097357e-03  -1.087925e-02  0 
 -5.922114e-04  -1.089234e-02  0 
 -8.995313e-05  -1.087822e-02  0 
 4.006050e-04  -1.083266e-02  0 
 -2.095377e-03  -1.138474e-02  0 
 -2.141589e-03  -1.194973e-02  0 
 -2.176318e-03  -1.251526e-02  0 
 -2.208506e-03  -1.308797e-02  0 
 -2.245101e-03  -1.370230e-02  0 
 9.109204e-04  -1.136231e-02  0 
 9.468589e-04  -1.194293e-02  0 
 9.659901e-04  -1.250451e-02  0 
 9.770397e-04  -1.305871e-02  0 
 9.821454e-04  -1.362229e-02  0 
 -1.671114e-03  -1.426166e-02  0 
 -1.125249e-03  -1.416817e-02  0 
 -5.984816e-04  -1.412767e-02  0 
 -7.294735e-05  -1.412541e-02  0 
 4.490803e-04  -1.415775e-02  0 
 -2.543007e-04  -1.264257e-02  0 
 -8.927167e-04  -1.199115e-02  0 
 8.969914e-05  -1.313171e-02  0 
 6.088279e-06  -1.173230e-02  0 
 2.300809e-04  -1.371200e-02  0 
 1.674228e-04  -1.125093e-02  0 
 -1.052997e-03  -1.254177e-02  0 
 2.122802e-04  -1.248508e-02  0 
 -5.301701e-04  -1.315456e-02  0 
 -4.906303e-04  -1.182116e-02  0 
 -7.053805e-04  -1.278118e-02  0 
 -5.488071e-04  -1.225798e-02  0 
 -3.352059e-04  -1.360191e-02  0 
 -3.504862e-04  -1.135422e-02  0 
 5.937472e-04  -1.338000e-02  0 
 4.831157e-04  -1.164916e-02  0 
 -1.446056e-03  -1.368555e-02  0 
 -1.296429e-03  -1.204525e-02  0 
 -1.462856e-03  -1.303696e-02  0 
 -1.148567e-04  -1.218141e-02  0 
 -1.489793e-03  -1.252344e-02  0 
 -1.812386e-03  -1.278424e-02  0 
 -1.750618e-03  -1.222034e-02  0 
 -9.513884e-04  -1.146471e-02  0 
 -8.643054e-04  -1.367239e-02  0 
 2.375037e-04  -1.205228e-02  0 
 5.764156e-04  -1.280096e-02  0 
 -1.597910e-03  -1.158580e-02  0 
 6.319669e-04  -1.382845e-02  0 
 5.330027e-04  -1.111814e-02  0 
 -1.826327e-03  -1.336963e-02  0 
 5.692322e-04  -1.224287e-02  0 
 -1.001231e-03  -1.314591e-02  0 
 -1.860095e-03  -1.389312e-02  0 
 -1.409788e-03  -1.116356e-02  0 
 -1.716971e-03  -1.111879e-02  0 
VECTORS displacement_ITER12 FLOAT
 -2.009523e-03  -1.073369e-02  0 
 8.350637e-04  -1.066638e-02  0 
 -2.274638e-03  -1.446867e-02  0 
 9.734859e-04  -1.425174e-02  0 
 -1.590160e-03  -1.085013e-02  0 
 -1.101760e-03  -1.087563e-02  0 
 -5.953057e-04  -1.088794e-02  0 
 -9.158027e-05  -1.087290e-02  0 
 4.007033e-04  -1.082632e-02  0 
 -2.100541e-03  -1.138328e-02  0 
 -2.147483e-03  -1.194856e-02  0 
 -2.182823e-03  -1.251522e-02  0 
 -2.215360e-03  -1.308923e-02  0 
 -2.252256e-03  -1.370505e-02  0 
 9.133804e-04  -1.135802e-02  0 
 9.489507e-04  -1.194102e-02  0 
 9.680158e-04  -1.250447e-02  0 
 9.790171e-04  -1.306052e-02  0 
 9.843046e-04  -1.362617e-02  0 
 -1.676767e-03  -1.426577e-02  0 
 -1.129518e-03  -1.417220e-02  0 
 -6.013690e-04  -1.413205e-02  0 
 -7.440039e-05  -1.413035e-02  0 
 4.492269e-04  -1.416345e-02  0 
 -2.566716e-04  -1.264304e-02  0 
 -8.968731e-04  -1.198980e-02  0 
 8.848060e-05  -1.313376e-02  0 
 4.532906e-06  -1.172985e-02  0 
 2.293748e-04  -1.371595e-02  0 
 1.664784e-04  -1.124663e-02  0 
 -1.057426e-03  -1.254173e-02  0 
 2.114883e-04  -1.248509e-02  0 
 -5.332141e-04  -1.315636e-02  0 
 -4.937850e-04  -1.181925e-02  0 
 -7.089487e-04  -1.278188e-02  0 
 -5.520893e-04  -1.225731e-02  0 
 -3.375890e-04  -1.360511e-02  0 
 -3.531336e-04  -1.135078e-02  0 
 5.943041e-04  -1.338290e-02  0 
 4.833953e-04  -1.164633e-02  0 
 -1.451170e-03  -1.368828e-02  0 
 -1.301398e-03  -1.204405e-02  0 
 -1.468062e-03  -1.303803e-02  0 
 -1.168178e-04  -1.218047e-02  0 
 -1.495057e-03  -1.252325e-02  0 
 -1.818303e-03  -1.278467e-02  0 
 -1.756280e-03  -1.221945e-02  0 
 -9.557210e-04  -1.146226e-02  0 
 -8.680568e-04  -1.367535e-02  0 
 2.368188e-04  -1.205088e-02  0 
 5.769350e-04  -1.280197e-02  0 
 -1.603313e-03  -1.158388e-02  0 
 6.326974e-04  -1.383303e-02  0 
 5.336154e-04  -1.111300e-02  0 
 -1.832341e-03  -1.337149e-02  0 
 5.697880e-04  -1.224206e-02  0 
 -1.005419e-03  -1.314742e-02  0 
 -1.866170e-03  -1.389637e-02  0 
 -1.414869e-03  -1.116104e-02  0 
 -1.722105e-03  -1.111677e-02  0 
VECTORS displacement_ITER13 FLOAT
 -2.003909e-03  -1.073312e-02  0 
 8.401978e-04  -1.066181e-02  0 
 -2.270878e-03  -1.446796e-02  0 
 9.784777e-04  -1.425245e-02  0 
 -1.585812e-03  -1.084899e-02  0 
 -1.097604e-03  -1.087400e-02  0 
 -5.910783e-04  -1.088607e-02  0 
 -8.730886e-05  -1.087069e-02  0 
 4.051489e-04  -1.082344e-02  0 
 -2.095874e-03  -1.138191e-02  0 
 -2.143132e-03  -1.194694e-02  0 
 -2.178721e-03  -1.251364e-02  0 
 -2.211350e-03  -1.308771e-02  0 
 -2.248319e-03  -1.370354e-02  0 
 9.184331e-04  -1.135555e-02  0 
 9.538132e-04  -1.193914e-02  0 
 9.728252e-04  -1.250299e-02  0 
 9.838399e-04  -1.305952e-02  0 
 9.892399e-04  -1.362577e-02  0 
 -1.672641e-03  -1.426447e-02  0 
 -1.125336e-03  -1.417087e-02  0 
 -5.971559e-04  -1.413093e-02  0 
 -6.997604e-05  -1.412954e-02  0 
 4.539335e-04  -1.416320e-02  0 
 -2.526189e-04  -1.264156e-02  0 
 -8.928404e-04  -1.198808e-02  0 
 9.269112e-05  -1.313263e-02  0 
 8.621909e-06  -1.172785e-02  0 
 2.337561e-04  -1.371524e-02  0 
 1.706406e-04  -1.124423e-02  0 
 -1.053356e-03  -1.254008e-02  0 
 2.157224e-04  -1.248360e-02  0 
 -5.291200e-04  -1.315500e-02  0 
 -4.897690e-04  -1.181745e-02  0 
 -7.048873e-04  -1.278035e-02  0 
 -5.480788e-04  -1.225565e-02  0 
 -3.333960e-04  -1.360398e-02  0 
 -3.490281e-04  -1.134879e-02  0 
 5.988092e-04  -1.338213e-02  0 
 4.877371e-04  -1.164423e-02  0 
 -1.447029e-03  -1.368688e-02  0 
 -1.297271e-03  -1.204231e-02  0 
 -1.463967e-03  -1.303647e-02  0 
 -1.127597e-04  -1.217875e-02  0 
 -1.490936e-03  -1.252158e-02  0 
 -1.814210e-03  -1.278307e-02  0 
 -1.752101e-03  -1.221774e-02  0 
 -9.516679e-04  -1.146056e-02  0 
 -8.639265e-04  -1.367405e-02  0 
 2.410405e-04  -1.204908e-02  0 
 5.814083e-04  -1.280073e-02  0 
 -1.599055e-03  -1.158216e-02  0 
 6.372876e-04  -1.383277e-02  0 
 5.379483e-04  -1.111014e-02  0 
 -1.828271e-03  -1.336996e-02  0 
 5.742627e-04  -1.224043e-02  0 
 -1.001321e-03  -1.314596e-02  0 
 -1.862036e-03  -1.389501e-02  0 
 -1.410692e-03  -1.115948e-02  0 
 -1.717573e-03  -1.111523e-02  0 
VECTORS displacement_ITER14 FLOAT
 -2.002181e-03  -1.073686e-02  0 
 8.372341e-04  -1.066278e-02  0 
 -2.270358e-03  -1.446716e-02  0 
 9.761514e-04  -1.425372e-02  0 
 -1.585844e-03  -1.085214e-02  0 
 -1.098389e-03  -1.087668e-02  0 
 -5.924300e-04  -1.088848e-02  0 
 -8.917102e-05  -1.087283e-02  0 
 4.028658e-04  -1.082525e-02  0 