# vtk DataFile Version 3.1
this is an vtk file created by FEMAC
ASCII
DATASET UNSTRUCTURED_GRID
POINTS 56 FLOAT
4.000000 5.000000 0.000000
4.000000 6.000000 0.000000
5.000000 5.000000 0.000000
5.000000 6.000000 0.000000
4.000000 5.166667 0.000000
4.000000 5.333333 0.000000
4.000000 5.500000 0.000000
4.000000 5.666667 0.000000
4.000000 5.833333 0.000000
4.166667 5.000000 0.000000
4.333333 5.000000 0.000000
4.500000 5.000000 0.000000
4.666667 5.000000 0.000000
4.833333 5.000000 0.000000
4.166667 6.000000 0.000000
4.333333 6.000000 0.000000
4.500000 6.000000 0.000000
4.666667 6.000000 0.000000
4.833333 6.000000 0.000000
5.000000 5.166667 0.000000
5.000000 5.333333 0.000000
5.000000 5.500000 0.000000
5.000000 5.666667 0.000000
5.000000 5.833333 0.000000
4.411798 5.515321 0.000000
4.745603 5.677184 0.000000
4.274071 5.453938 0.000000
4.739044 5.466211 0.000000
4.514701 5.207096 0.000000
4.267057 5.672692 0.000000
4.581086 5.382084 0.000000
4.585709 5.579012 0.000000
4.869143 5.405413 0.000000
4.600164 5.811403 0.000000
4.134901 5.406943 0.000000
4.687686 5.125875 0.000000
4.318278 5.124552 0.000000
4.133615 5.560851 0.000000
4.756587 5.289898 0.000000
4.219801 5.272319 0.000000
4.879348 5.573596 0.000000
4.857802 5.144759 0.000000
4.140200 5.141903 0.000000
4.635015 5.251238 0.000000
4.098980 5.264233 0.000000
4.391396 5.326742 0.000000
4.896707 5.268014 0.000000
4.115309 5.814347 0.000000
4.374326 5.821866 0.000000
4.457505 5.695152 0.000000
4.488292 5.830040 0.000000
4.876381 5.755243 0.000000
4.893418 5.897401 0.000000
4.247781 5.862867 0.000000
4.769261 5.856872 0.000000
4.128995 5.678639 0.000000
CELLS 86 344 
3 24 29 26
3 25 31 27
3 30 31 24
3 30 27 31
3 36  9 10
3 13 35 12
3 34  6  5
3 33 31 25
3 21 32 20
3 34 37  6
3 37 34 26
3 21 40 32
3 40 27 32
3 41 13  2
3 19 41  2
3 42  4  0
3 9 42  0
3 37  7  6
3 40 25 27
3 34 39 26
3 30 38 27
3 38 32 27
3 29 37 26
3 28 43 30
3 38 43 35
3 43 38 30
3 43 28 35
3 44 34  5
3 34 44 39
3 45 39 36
3 28 45 36
3 32 46 20
3 46 32 38
3 46 19 20
3 4 44  5
3 11 28 36
3 28 11 35
3 12 35 11
3 36 10 11
3 40 21 22
3 41 19 46
3 41 35 13
3 38 35 41
3 41 46 38
3 4 42 44
3 36 42  9
3 36 39 42
3 44 42 39
3 45 24 26
3 45 30 24
3 39 45 26
3 45 28 30
3 8 47  1
3 47 14  1
3 24 49 29
3 49 48 29
3 51 22 23
3 18 52  3
3 52 23  3
3 53 47 29
3 48 53 29
3 17 54 18
3 54 17 33
3 52 51 23
3 51 40 22
3 25 40 51
3 54 52 18
3 15 48 16
3 16 33 17
3 50 33 16
3 48 50 16
3 31 49 24
3 49 31 33
3 50 48 49
3 33 50 49
3 53 15 14
3 15 53 48
3 47 53 14
3 47  8  7
3 55  7 37
3 55 29 47
3 29 55 37
3 7 55 47
3 25 54 33
3 51 54 25
3 54 51 52
CELL_TYPES 86
5 5 5 5 5 5 5 5 5 5 5 5 5 5 5 5 5 5 5 5 5 5 5 5 5 5 5 5 5 5 5 5 5 5 5 5 5 5 5 5 5 5 5 5 5 5 5 5 5 5 5 5 5 5 5 5 5 5 5 5 5 5 5 5 5 5 5 5 5 5 5 5 5 5 5 5 5 5 5 5 5 5 5 5 5 5 
POINT_DATA 56
VECTORS displacement_ITER1 FLOAT
 1.108590e-02  -1.827496e-02  0 
 1.688329e-02  -2.151279e-02  0 
 1.370571e-02  -2.339163e-02  0 
 1.871612e-02  -2.365589e-02  0 
 1.259044e-02  -1.983457e-02  0 
 1.389654e-02  -2.098895e-02  0 
 1.404051e-02  -2.145088e-02  0 
 1.430963e-02  -2.089413e-02  0 
 1.506837e-02  -2.040940e-02  0 
 1.275993e-02  -1.959275e-02  0 
 1.331813e-02  -2.052089e-02  0 
 1.339534e-02  -2.114090e-02  0 
 1.334745e-02  -2.133722e-02  0 
 1.341814e-02  -2.204210e-02  0 
 1.683846e-02  -2.241869e-02  0 
 1.672974e-02  -2.325285e-02  0 
 1.685981e-02  -2.380232e-02  0 
 1.720138e-02  -2.404773e-02  0 
 1.769868e-02  -2.410697e-02  0 
 1.485923e-02  -2.420316e-02  0 
 1.521024e-02  -2.320652e-02  0 
 1.595487e-02  -2.317004e-02  0 
 1.711691e-02  -2.340226e-02  0 
 1.758875e-02  -2.382113e-02  0 
 1.499918e-02  -2.215522e-02  0 
 1.643906e-02  -2.318952e-02  0 
 1.443003e-02  -2.159569e-02  0 
 1.564553e-02  -2.279604e-02  0 
 1.415348e-02  -2.150832e-02  0 
 1.500647e-02  -2.227206e-02  0 
 1.500588e-02  -2.221890e-02  0 
 1.571168e-02  -2.276976e-02  0 
 1.553786e-02  -2.302794e-02  0 
 1.656570e-02  -2.344393e-02  0 
 1.417298e-02  -2.130726e-02  0 
 1.398060e-02  -2.173071e-02  0 
 1.370921e-02  -2.090791e-02  0 
 1.423815e-02  -2.149239e-02  0 
 1.507328e-02  -2.262085e-02  0 
 1.390954e-02  -2.126825e-02  0 
 1.629182e-02  -2.304840e-02  0 
 1.442748e-02  -2.279693e-02  0 
 1.315808e-02  -2.062569e-02  0 
 1.456752e-02  -2.198177e-02  0 
 1.370021e-02  -2.103023e-02  0 
 1.432878e-02  -2.154203e-02  0 
 1.521301e-02  -2.326955e-02  0 
 1.527278e-02  -2.174101e-02  0 
 1.601634e-02  -2.312902e-02  0 
 1.574856e-02  -2.289520e-02  0 
 1.632776e-02  -2.333657e-02  0 
 1.708401e-02  -2.351594e-02  0 
 1.778299e-02  -2.358336e-02  0 
 1.593710e-02  -2.274351e-02  0 
 1.722879e-02  -2.363318e-02  0 
 1.469758e-02  -2.161991e-02  0 
VECTORS displacement_ITER2 FLOAT
 8.323810e-03  -1.493702e-02  0 
 1.242996e-02  -1.639085e-02  0 
 1.031026e-02  -1.738096e-02  0 
 1.434926e-02  -1.767086e-02  0 
 8.781355e-03  -1.556765e-02  0 
 9.222806e-03  -1.546220e-02  0 
 9.998695e-03  -1.502732e-02  0 
 1.073279e-02  -1.544141e-02  0 
 1.147736e-02  -1.568934e-02  0 
 9.248952e-03  -1.475421e-02  0 
 9.171425e-03  -1.515026e-02  0 
 9.135932e-03  -1.600531e-02  0 
 9.146350e-03  -1.666949e-02  0 
 9.706978e-03  -1.735139e-02  0 
 1.260608e-02  -1.704993e-02  0 
 1.268410e-02  -1.767896e-02  0 
 1.280105e-02  -1.818803e-02  0 
 1.302695e-02  -1.837579e-02  0 
 1.342004e-02  -1.834884e-02  0 
 9.983191e-03  -1.776999e-02  0 
 1.133088e-02  -1.838784e-02  0 
 1.183658e-02  -1.818738e-02  0 
 1.261293e-02  -1.795486e-02  0 
 1.341436e-02  -1.788830e-02  0 
 1.092260e-02  -1.697513e-02  0 
 1.238928e-02  -1.782321e-02  0 
 1.026851e-02  -1.643568e-02  0 
 1.152380e-02  -1.762505e-02  0 
 1.003697e-02  -1.637890e-02  0 
 1.131434e-02  -1.687879e-02  0 
 1.080607e-02  -1.701334e-02  0 
 1.167789e-02  -1.752276e-02  0 
 1.143653e-02  -1.792425e-02  0 
 1.256394e-02  -1.796741e-02  0 
 9.683888e-03  -1.585287e-02  0 
 9.818299e-03  -1.705435e-02  0 
 9.477289e-03  -1.535100e-02  0 
 1.052042e-02  -1.600557e-02  0 
 1.064834e-02  -1.736993e-02  0 
 9.428826e-03  -1.582248e-02  0 
 1.213537e-02  -1.791017e-02  0 
 9.993976e-03  -1.770512e-02  0 
 9.055152e-03  -1.549192e-02  0 
 1.036917e-02  -1.695838e-02  0 
 9.157775e-03  -1.566689e-02  0 
 1.011887e-02  -1.635017e-02  0 
 1.060493e-02  -1.773581e-02  0 
 1.165328e-02  -1.645043e-02  0 
 1.214658e-02  -1.760331e-02  0 
 1.184441e-02  -1.753251e-02  0 
 1.237827e-02  -1.784493e-02  0 
 1.289509e-02  -1.785335e-02  0 
 1.356207e-02  -1.781552e-02  0 
 1.210417e-02  -1.720801e-02  0 
 1.307343e-02  -1.800440e-02  0 
 1.105801e-02  -1.621537e-02  0 
VECTORS displacement_ITER3 FLOAT
 7.052808e-03  -1.310289e-02  0 
 1.079812e-02  -1.369329e-02  0 
 8.164011e-03  -1.561533e-02  0 
 1.241509e-02  -1.598201e-02  0 
 7.441643e-03  -1.335990e-02  0 
 7.999590e-03  -1.339154e-02  0 
 8.702326e-03  -1.319755e-02  0 
 9.248401e-03  -1.358220e-02  0 
 9.912285e-03  -1.357349e-02  0 
 7.537568e-03  -1.292781e-02  0 
 7.639871e-03  -1.340259e-02  0 
 7.732834e-03  -1.410575e-02  0 
 7.713476e-03  -1.459352e-02  0 
 7.980276e-03  -1.516090e-02  0 
 1.093029e-02  -1.472569e-02  0 
 1.097574e-02  -1.545803e-02  0 
 1.110068e-02  -1.597903e-02  0 
 1.133198e-02  -1.625585e-02  0 
 1.167908e-02  -1.633285e-02  0 
 8.873943e-03  -1.580921e-02  0 
 9.565144e-03  -1.563338e-02  0 
 1.014613e-02  -1.570131e-02  0 
 1.102501e-02  -1.585185e-02  0 
 1.174317e-02  -1.587265e-02  0 
 9.391090e-03  -1.487806e-02  0 
 1.064020e-02  -1.563615e-02  0 
 8.880522e-03  -1.439885e-02  0 
 9.821594e-03  -1.540849e-02  0 
 8.531053e-03  -1.444526e-02  0 
 9.704777e-03  -1.472218e-02  0 
 9.260478e-03  -1.498018e-02  0 
 9.992028e-03  -1.534262e-02  0 
 9.724085e-03  -1.555854e-02  0 
 1.079767e-02  -1.579704e-02  0 
 8.425608e-03  -1.386172e-02  0 
 8.387918e-03  -1.483369e-02  0 
 7.985294e-03  -1.362374e-02  0 
 9.103993e-03  -1.399777e-02  0 
 9.194783e-03  -1.524765e-02  0 
 8.116741e-03  -1.389283e-02  0 
 1.039868e-02  -1.561915e-02  0 
 8.657834e-03  -1.538563e-02  0 
 7.611131e-03  -1.345731e-02  0 
 8.867748e-03  -1.487365e-02  0 
 7.877654e-03  -1.361647e-02  0 
 8.680199e-03  -1.440366e-02  0 
 9.255324e-03  -1.554089e-02  0 
 9.952163e-03  -1.428251e-02  0 
 1.041985e-02  -1.537652e-02  0 
 1.014422e-02  -1.533920e-02  0 
 1.063825e-02  -1.564374e-02  0 
 1.121386e-02  -1.579849e-02  0 
 1.174908e-02  -1.592651e-02  0 
 1.037286e-02  -1.499558e-02  0 
 1.130747e-02  -1.597627e-02  0 
 9.501606e-03  -1.415794e-02  0 
VECTORS displacement_ITER4 FLOAT
 6.298684e-03  -1.239621e-02  0 
 9.647441e-03  -1.279297e-02  0 
 6.994660e-03  -1.497545e-02  0 
 1.140571e-02  -1.520192e-02  0 
 6.744093e-03  -1.254931e-02  0 
 7.213621e-03  -1.269888e-02  0 
 7.839675e-03  -1.260413e-02  0 
 8.456644e-03  -1.262258e-02  0 
 9.018310e-03  -1.271444e-02  0 
 6.506494e-03  -1.259363e-02  0 
 6.742816e-03  -1.289161e-02  0 
 6.903972e-03  -1.333338e-02  0 
 6.852016e-03  -1.377987e-02  0 
 6.893688e-03  -1.434179e-02  0 
 9.910482e-03  -1.381328e-02  0 
 1.004910e-02  -1.455560e-02  0 
 1.018719e-02  -1.514366e-02  0 
 1.041233e-02  -1.547488e-02  0 
 1.074246e-02  -1.560859e-02  0 
 7.948804e-03  -1.512620e-02  0 
 8.481253e-03  -1.491685e-02  0 
 9.272298e-03  -1.499650e-02  0 
 1.000284e-02  -1.520825e-02  0 
 1.074502e-02  -1.528007e-02  0 
 8.440022e-03  -1.407474e-02  0 
 9.662409e-03  -1.492022e-02  0 
 7.975152e-03  -1.359795e-02  0 
 8.816987e-03  -1.465294e-02  0 
 7.535566e-03  -1.372657e-02  0 
 8.761450e-03  -1.387634e-02  0 
 8.271284e-03  -1.422357e-02  0 
 9.005086e-03  -1.455695e-02  0 
 8.741388e-03  -1.477333e-02  0 
 9.845371e-03  -1.500892e-02  0 
 7.605074e-03  -1.313103e-02  0 
 7.446067e-03  -1.396664e-02  0 
 7.033946e-03  -1.313322e-02  0 
 8.169558e-03  -1.322612e-02  0 
 8.218194e-03  -1.446632e-02  0 
 7.305391e-03  -1.319384e-02  0 
 9.429690e-03  -1.495549e-02  0 
 7.700331e-03  -1.459002e-02  0 
 6.821327e-03  -1.282084e-02  0 
 7.875251e-03  -1.409600e-02  0 
 7.127270e-03  -1.288463e-02  0 
 7.743027e-03  -1.367492e-02  0 
 8.264420e-03  -1.482230e-02  0 
 9.067318e-03  -1.331906e-02  0 
 9.473047e-03  -1.449910e-02  0 
 9.177404e-03  -1.450703e-02  0 
 9.691408e-03  -1.481225e-02  0 
 1.021049e-02  -1.511824e-02  0 
 1.079937e-02  -1.523725e-02  0 
 9.450230e-03  -1.405041e-02  0 
 1.035000e-02  -1.523906e-02  0 
 8.627303e-03  -1.327772e-02  0 
VECTORS displacement_ITER5 FLOAT
 5.994569e-03  -1.211824e-02  0 
 9.163021e-03  -1.253504e-02  0 
 6.513727e-03  -1.457429e-02  0 
 1.092706e-02  -1.500216e-02  0 
 6.309288e-03  -1.230571e-02  0 
 6.794590e-03  -1.241099e-02  0 
 7.352770e-03  -1.251787e-02  0 
 8.029293e-03  -1.241166e-02  0 
 8.566699e-03  -1.247066e-02  0 
 6.211167e-03  -1.232392e-02  0 
 6.324341e-03  -1.272340e-02  0 
 6.396764e-03  -1.320971e-02  0 
 6.415548e-03  -1.367102e-02  0 
 6.434392e-03  -1.421858e-02  0 
 9.426244e-03  -1.355266e-02  0 
 9.556474e-03  -1.429095e-02  0 
 9.676254e-03  -1.487478e-02  0 
 9.878716e-03  -1.516531e-02  0 
 1.021621e-02  -1.529673e-02  0 
 7.180907e-03  -1.466410e-02  0 
 8.006042e-03  -1.490538e-02  0 
 8.809972e-03  -1.487906e-02  0 
 9.428092e-03  -1.485404e-02  0 
 1.020602e-02  -1.493543e-02  0 
 7.975961e-03  -1.379946e-02  0 
 9.191325e-03  -1.467051e-02  0 
 7.536995e-03  -1.334850e-02  0 
 8.351020e-03  -1.440244e-02  0 
 7.080798e-03  -1.351809e-02  0 
 8.271095e-03  -1.364839e-02  0 
 7.778614e-03  -1.394186e-02  0 
 8.540772e-03  -1.429379e-02  0 
 8.263770e-03  -1.457881e-02  0 
 9.350224e-03  -1.475085e-02  0 
 7.192164e-03  -1.290704e-02  0 
 6.924369e-03  -1.385207e-02  0 
 6.628752e-03  -1.287845e-02  0 
 7.683448e-03  -1.304743e-02  0 
 7.627244e-03  -1.419461e-02  0 
 6.883369e-03  -1.295174e-02  0 
 8.975030e-03  -1.474454e-02  0 
 7.058457e-03  -1.437425e-02  0 
 6.422824e-03  -1.255630e-02  0 
 7.365147e-03  -1.388413e-02  0 
 6.694316e-03  -1.264038e-02  0 
 7.303372e-03  -1.342740e-02  0 
 7.599815e-03  -1.454154e-02  0 
 8.602437e-03  -1.306581e-02  0 
 8.983701e-03  -1.425598e-02  0 
 8.696028e-03  -1.425462e-02  0 
 9.198131e-03  -1.455686e-02  0 
 9.668256e-03  -1.479381e-02  0 
 1.025098e-02  -1.492387e-02  0 
 8.972227e-03  -1.379749e-02  0 
 9.811023e-03  -1.492898e-02  0 
 8.165464e-03  -1.306040e-02  0 
VECTORS displacement_ITER6 FLOAT
 5.805279e-03  -1.197291e-02  0 
 8.958700e-03  -1.233677e-02  0 
 6.285793e-03  -1.457403e-02  0 
 1.064666e-02  -1.482486e-02  0 
 6.052876e-03  -1.214878e-02  0 
 6.593970e-03  -1.217796e-02  0 
 7.163186e-03  -1.228451e-02  0 
 7.770834e-03  -1.229179e-02  0 
 8.391960e-03  -1.232503e-02  0 
 5.940370e-03  -1.226525e-02  0 
 6.021658e-03  -1.257810e-02  0 
 6.082129e-03  -1.296747e-02  0 
 6.176609e-03  -1.340578e-02  0 
 6.207397e-03  -1.396459e-02  0 
 9.215717e-03  -1.338723e-02  0 
 9.349328e-03  -1.413320e-02  0 
 9.474942e-03  -1.472402e-02  0 
 9.681374e-03  -1.504555e-02  0 
 9.985711e-03  -1.516394e-02  0 
 7.028185e-03  -1.463234e-02  0 
 7.775272e-03  -1.472320e-02  0 
 8.476142e-03  -1.478150e-02  0 
 9.266144e-03  -1.481670e-02  0 
 9.973516e-03  -1.481781e-02  0 
 7.760573e-03  -1.364892e-02  0 
 8.960476e-03  -1.453047e-02  0 
 7.320984e-03  -1.317576e-02  0 
 8.100998e-03  -1.428259e-02  0 
 6.809423e-03  -1.336096e-02  0 
 8.067388e-03  -1.347987e-02  0 
 7.543833e-03  -1.382024e-02  0 
 8.313757e-03  -1.415114e-02  0 
 7.988003e-03  -1.448427e-02  0 
 9.135186e-03  -1.460622e-02  0 
 6.977805e-03  -1.270413e-02  0 
 6.687560e-03  -1.365641e-02  0 
 6.317426e-03  -1.271759e-02  0 
 7.489690e-03  -1.284542e-02  0 
 7.408401e-03  -1.409793e-02  0 
 6.624372e-03  -1.277084e-02  0 
 8.714296e-03  -1.460321e-02  0 
 6.890501e-03  -1.421958e-02  0 
 6.165234e-03  -1.239961e-02  0 
 7.116418e-03  -1.374240e-02  0 
 6.447934e-03  -1.246347e-02  0 
 7.053135e-03  -1.327530e-02  0 
 7.425346e-03  -1.442925e-02  0 
 8.398373e-03  -1.292499e-02  0 
 8.773982e-03  -1.409254e-02  0 
 8.481189e-03  -1.409827e-02  0 
 8.986708e-03  -1.440329e-02  0 
 9.482848e-03  -1.471534e-02  0 
 1.002574e-02  -1.480775e-02  0 
 8.761341e-03  -1.363690e-02  0 
 9.612435e-03  -1.482899e-02  0 
 7.940705e-03  -1.289958e-02  0 
VECTORS displacement_ITER7 FLOAT
 5.676289e-03  -1.186838e-02  0 
 8.910600e-03  -1.225872e-02  0 
 6.149825e-03  -1.451946e-02  0 
 1.059196e-02  -1.481341e-02  0 
 5.975537e-03  -1.210005e-02  0 
 6.563872e-03  -1.219084e-02  0 
 7.122524e-03  -1.231481e-02  0 
 7.672480e-03  -1.235153e-02  0 
 8.303567e-03  -1.228092e-02  0 
 5.897528e-03  -1.214620e-02  0 
 6.014251e-03  -1.252874e-02  0 
 6.082281e-03  -1.297062e-02  0 
 6.175802e-03  -1.341281e-02  0 
 6.163649e-03  -1.390408e-02  0 
 9.138040e-03  -1.335383e-02  0 
 9.247905e-03  -1.410903e-02  0 
 9.370603e-03  -1.468472e-02  0 
 9.577697e-03  -1.498497e-02  0 
 9.896509e-03  -1.510125e-02  0 
 6.958168e-03  -1.459377e-02  0 
 7.692160e-03  -1.462638e-02  0 
 8.430080e-03  -1.470387e-02  0 
 9.177041e-03  -1.470866e-02  0 
 9.877391e-03  -1.474515e-02  0 
 7.694828e-03  -1.360768e-02  0 
 8.880835e-03  -1.446889e-02  0 
 7.273110e-03  -1.316079e-02  0 
 8.034693e-03  -1.420541e-02  0 
 6.784931e-03  -1.332724e-02  0 
 7.977822e-03  -1.345484e-02  0 
 7.489067e-03  -1.376305e-02  0 
 8.238079e-03  -1.409300e-02  0 
 7.921172e-03  -1.439477e-02  0 
 9.042990e-03  -1.455506e-02  0 
 6.943765e-03  -1.271005e-02  0 
 6.649938e-03  -1.362238e-02  0 
 6.315512e-03  -1.268918e-02  0 
 7.431283e-03  -1.284517e-02  0 
 7.350374e-03  -1.402340e-02  0 
 6.597100e-03  -1.277045e-02  0 
 8.652738e-03  -1.452980e-02  0 
 6.824630e-03  -1.413351e-02  0 
 6.115917e-03  -1.236507e-02  0 
 7.075402e-03  -1.369163e-02  0 
 6.413247e-03  -1.246169e-02  0 
 7.017505e-03  -1.324730e-02  0 
 7.365538e-03  -1.435358e-02  0 
 8.287857e-03  -1.291489e-02  0 
 8.676429e-03  -1.406335e-02  0 
 8.394399e-03  -1.405530e-02  0 
 8.891364e-03  -1.436210e-02  0 
 9.384705e-03  -1.463583e-02  0 
 9.928688e-03  -1.473840e-02  0 
 8.657525e-03  -1.362311e-02  0 
 9.512634e-03  -1.475769e-02  0 
 7.847344e-03  -1.290306e-02  0 
VECTORS displacement_ITER8 FLOAT
 5.692200e-03  -1.191087e-02  0 
 8.869129e-03  -1.226164e-02  0 
 6.163045e-03  -1.449609e-02  0 
 1.058705e-02  -1.476057e-02  0 
 6.001059e-03  -1.207902e-02  0 
 6.503365e-03  -1.218987e-02  0 
 7.104099e-03  -1.218755e-02  0 
 7.696851e-03  -1.223433e-02  0 
 8.308089e-03  -1.224230e-02  0 
 5.882147e-03  -1.214881e-02  0 
 5.985239e-03  -1.248830e-02  0 
 6.051408e-03  -1.291203e-02  0 
 6.123569e-03  -1.337866e-02  0 
 6.160251e-03  -1.386204e-02  0 
 9.131763e-03  -1.331488e-02  0 
 9.268598e-03  -1.406162e-02  0 
 9.396208e-03  -1.465175e-02  0 
 9.600384e-03  -1.496797e-02  0 
 9.911279e-03  -1.509218e-02  0 
 6.948263e-03  -1.460581e-02  0 
 7.698026e-03  -1.466295e-02  0 
 8.436829e-03  -1.471726e-02  0 
 9.162536e-03  -1.474049e-02  0 
 9.882700e-03  -1.476007e-02  0 
 7.675854e-03  -1.358364e-02  0 
 8.881468e-03  -1.447094e-02  0 
 7.236756e-03  -1.312113e-02  0 
 8.029082e-03  -1.421149e-02  0 
 6.753641e-03  -1.328722e-02  0 
 7.991584e-03  -1.340312e-02  0 
 7.470976e-03  -1.374426e-02  0 
 8.232812e-03  -1.408526e-02  0 
 7.925692e-03  -1.440729e-02  0 
 9.057720e-03  -1.453653e-02  0 
 6.885485e-03  -1.265823e-02  0 
 6.619362e-03  -1.359827e-02  0 
 6.278777e-03  -1.264587e-02  0 
 7.426007e-03  -1.277397e-02  0 
 7.336938e-03  -1.401572e-02  0 
 6.561888e-03  -1.271428e-02  0 
 8.645922e-03  -1.455079e-02  0 
 6.808168e-03  -1.412356e-02  0 
 6.103309e-03  -1.234162e-02  0 
 7.052979e-03  -1.366839e-02  0 
 6.389680e-03  -1.241398e-02  0 
 6.985798e-03  -1.320591e-02  0 
 7.357629e-03  -1.436075e-02  0 
 8.314255e-03  -1.284724e-02  0 
 8.695811e-03  -1.401842e-02  0 
 8.402783e-03  -1.402837e-02  0 
 8.908712e-03  -1.433189e-02  0 
 9.386795e-03  -1.464260e-02  0 
 9.946863e-03  -1.473329e-02  0 
 8.680083e-03  -1.356261e-02  0 
 9.528337e-03  -1.475066e-02  0 
 7.865472e-03  -1.282785e-02  0 
VECTORS displacement_ITER9 FLOAT
 5.672930e-03  -1.188121e-02  0 
 8.876503e-03  -1.226134e-02  0 
 6.179301e-03  -1.446775e-02  0 
 1.057431e-02  -1.479805e-02  0 
 6.006299e-03  -1.206784e-02  0 
 6.511958e-03  -1.220005e-02  0 
 7.081940e-03  -1.221150e-02  0 
 7.675542e-03  -1.221210e-02  0 
 8.257044e-03  -1.222410e-02  0 
 5.864449e-03  -1.212723e-02  0 
 5.965884e-03  -1.249626e-02  0 
 6.043582e-03  -1.294586e-02  0 
 6.099517e-03  -1.341553e-02  0 
 6.174788e-03  -1.390045e-02  0 
 9.128227e-03  -1.332206e-02  0 
 9.252540e-03  -1.407695e-02  0 
 9.376771e-03  -1.466436e-02  0 
 9.578287e-03  -1.497341e-02  0 
 9.892907e-03  -1.510057e-02  0 
 6.930442e-03  -1.459733e-02  0 
 7.705111e-03  -1.469000e-02  0 
 8.446121e-03  -1.470480e-02  0 
 9.140163e-03  -1.472386e-02  0 
 9.870221e-03  -1.475680e-02  0 
 7.665904e-03  -1.358430e-02  0 
 8.870473e-03  -1.447836e-02  0 
 7.228514e-03  -1.311840e-02  0 
 8.030409e-03  -1.422059e-02  0 
 6.753910e-03  -1.330129e-02  0 
 7.966648e-03  -1.340775e-02  0 
 7.467408e-03  -1.374885e-02  0 
 8.225897e-03  -1.409408e-02  0 
 7.935061e-03  -1.441382e-02  0 
 9.039047e-03  -1.454792e-02  0 
 6.883520e-03  -1.265948e-02  0 
 6.609621e-03  -1.363206e-02  0 
 6.282795e-03  -1.265504e-02  0 
 7.398299e-03  -1.277868e-02  0 
 7.329646e-03  -1.402269e-02  0 
 6.569379e-03  -1.271562e-02  0 
 8.641387e-03  -1.455550e-02  0 
 6.790575e-03  -1.414165e-02  0 
 6.106415e-03  -1.233444e-02  0 
 7.050356e-03  -1.368273e-02  0 
 6.399026e-03  -1.241440e-02  0 
 6.986641e-03  -1.320873e-02  0 
 7.345186e-03  -1.436922e-02  0 
 8.277869e-03  -1.284559e-02  0 
 8.675810e-03  -1.403335e-02  0 
 8.387137e-03  -1.403918e-02  0 
 8.889619e-03  -1.434418e-02  0 
 9.366600e-03  -1.463778e-02  0 
 9.924070e-03  -1.474248e-02  0 
 8.656667e-03  -1.357783e-02  0 
 9.504379e-03  -1.475475e-02  0 
 7.840371e-03  -1.282539e-02  0 
VECTORS displacement_ITER10 FLOAT
 5.659052e-03  -1.191522e-02  0 
 8.865358e-03  -1.222457e-02  0 
 6.175207e-03  -1.449705e-02  0 
 1.057423e-02  -1.476703e-02  0 
 6.011095e-03  -1.205174e-02  0 
 6.523826e-03  -1.213259e-02  0 
 7.075611e-03  -1.219034e-02  0 
 7.657306e-03  -1.220920e-02  0 
 8.248512e-03  -1.222074e-02  0 
 5.847207e-03  -1.213164e-02  0 
 5.952623e-03  -1.248676e-02  0 
 6.038073e-03  -1.291677e-02  0 
 6.080833e-03  -1.338397e-02  0 
 6.149484e-03  -1.388446e-02  0 
 9.116412e-03  -1.330618e-02  0 
 9.243328e-03  -1.406538e-02  0 
 9.374175e-03  -1.465234e-02  0 
 9.583156e-03  -1.496731e-02  0 
 9.897005e-03  -1.509119e-02  0 
 6.944580e-03  -1.460226e-02  0 
 7.693724e-03  -1.464080e-02  0 
 8.422234e-03  -1.469076e-02  0 
 9.152176e-03  -1.473980e-02  0 
 9.874748e-03  -1.475227e-02  0 
 7.666238e-03  -1.356270e-02  0 
 8.866659e-03  -1.445801e-02  0 
 7.231439e-03  -1.309183e-02  0 
 8.016219e-03  -1.420564e-02  0 
 6.740334e-03  -1.328502e-02  0 
 7.961228e-03  -1.338687e-02  0 
 7.460544e-03  -1.373879e-02  0 
 8.220516e-03  -1.407204e-02  0 
 7.915964e-03  -1.439803e-02  0 
 9.037782e-03  -1.452883e-02  0 
 6.892856e-03  -1.262320e-02  0 
 6.604633e-03  -1.360140e-02  0 
 6.263943e-03  -1.264687e-02  0 
 7.395064e-03  -1.275455e-02  0 
 7.330937e-03  -1.401638e-02  0 
 6.559691e-03  -1.269841e-02  0 
 8.627568e-03  -1.453845e-02  0 
 6.800540e-03  -1.413527e-02  0 
 6.090701e-03  -1.232811e-02  0 
 7.042508e-03  -1.366646e-02  0 
 6.394230e-03  -1.238266e-02  0 
 6.976882e-03  -1.319365e-02  0 
 7.353027e-03  -1.435713e-02  0 
 8.263281e-03  -1.283688e-02  0 
 8.667990e-03  -1.401394e-02  0 
 8.382442e-03  -1.401607e-02  0 
 8.885271e-03  -1.432562e-02  0 
 9.377362e-03  -1.463567e-02  0 
 9.932899e-03  -1.473178e-02  0 
 8.643914e-03  -1.356340e-02  0 
 9.513332e-03  -1.474702e-02  0 
 7.828775e-03  -1.281060e-02  0 
VECTORS displacement_ITER11 FLOAT
 5.685095e-03  -1.193914e-02  0 
 8.863126e-03  -1.222653e-02  0 
 6.173989e-03  -1.448503e-02  0 
 1.058318e-02  -1.478636e-02  0 
 6.010117e-03  -1.206913e-02  0 
 6.531916e-03  -1.213805e-02  0 
 7.091501e-03  -1.219975e-02  0 
 7.665093e-03  -1.222864e-02  0 
 8.258724e-03  -1.224169e-02  0 
 5.854988e-03  -1.215530e-02  0 
 5.960558e-03  -1.251289e-02  0 
 6.041180e-03  -1.294326e-02  0 
 6.088831e-03  -1.339616e-02  0 
 6.145197e-03  -1.390016e-02  0 
 9.117369e-03  -1.331724e-02  0 
 9.247063e-03  -1.407721e-02  0 
 9.379159e-03  -1.466360e-02  0 
 9.586310e-03  -1.497521e-02  0 
 9.900561e-03  -1.509880e-02  0 
 6.949194e-03  -1.460126e-02  0 
 7.695766e-03  -1.466773e-02  0 
 8.439330e-03  -1.471669e-02  0 
 9.158849e-03  -1.473584e-02  0 
 9.875283e-03  -1.475811e-02  0 
 7.673804e-03  -1.357477e-02  0 
 8.876565e-03  -1.447373e-02  0 
 7.240996e-03  -1.310591e-02  0 
 8.025528e-03  -1.421676e-02  0 
 6.743044e-03  -1.330233e-02  0 
 7.970488e-03  -1.339718e-02  0 
 7.465488e-03  -1.374997e-02  0 
 8.228680e-03  -1.408456e-02  0 
 7.923590e-03  -1.441250e-02  0 
 9.045007e-03  -1.454166e-02  0 
 6.903812e-03  -1.263733e-02  0 
 6.605562e-03  -1.361332e-02  0 
 6.268781e-03  -1.266706e-02  0 
 7.408372e-03  -1.276571e-02  0 
 7.331263e-03  -1.402712e-02  0 
 6.565928e-03  -1.271479e-02  0 
 8.644308e-03  -1.455378e-02  0 
 6.798164e-03  -1.414576e-02  0 
 6.095203e-03  -1.234045e-02  0 
 7.043976e-03  -1.367954e-02  0 
 6.397461e-03  -1.239724e-02  0 
 6.982998e-03  -1.320911e-02  0 
 7.350617e-03  -1.437229e-02  0 
 8.269606e-03  -1.285111e-02  0 
 8.674556e-03  -1.402446e-02  0 
 8.390308e-03  -1.402758e-02  0 
 8.892024e-03  -1.433722e-02  0 
 9.379736e-03  -1.464375e-02  0 
 9.933905e-03  -1.473937e-02  0 
 8.648872e-03  -1.357429e-02  0 
 9.515980e-03  -1.475557e-02  0 
 7.837400e-03  -1.282411e-02  0 
VECTORS displacement_ITER12 FLOAT
 5.700665e-03  -1.193411e-02  0 
 8.864443e-03  -1.223368e-02  0 
 6.173036e-03  -1.449450e-02  0 
 1.059015e-02  -1.478621e-02  0 
 6.018237e-03  -1.207140e-02  0 
 6.528202e-03  -1.215767e-02  0 
 7.093279e-03  -1.220432e-02  0 
 7.680979e-03  -1.222523e-02  0 
 8.272561e-03  -1.224025e-02  0 
 5.866185e-03  -1.216069e-02  0 
 5.969617e-03  -1.251890e-02  0 
 6.045470e-03  -1.295180e-02  0 
 6.103503e-03  -1.340288e-02  0 
 6.150574e-03  -1.391303e-02  0 
 9.124292e-03  -1.331709e-02  0 
 9.257568e-03  -1.407594e-02  0 
 9.388704e-03  -1.466581e-02  0 
 9.595354e-03  -1.497985e-02  0 
 9.909146e-03  -1.510464e-02  0 
 6.955641e-03  -1.460224e-02  0 
 7.699908e-03  -1.467212e-02  0 
 8.443230e-03  -1.472446e-02  0 
 9.163814e-03  -1.474428e-02  0 
 9.882367e-03  -1.476736e-02  0 
 7.677836e-03  -1.358145e-02  0 
 8.881754e-03  -1.447954e-02  0 
 7.243637e-03  -1.311357e-02  0 
 8.029813e-03  -1.422186e-02  0 
 6.751069e-03  -1.330906e-02  0 
 7.977845e-03  -1.340222e-02  0 
 7.471056e-03  -1.375542e-02  0 
 8.233024e-03  -1.409010e-02  0 
 7.927302e-03  -1.441797e-02  0 
 9.052259e-03  -1.454607e-02  0 
 6.902442e-03  -1.264661e-02  0 
 6.614678e-03  -1.362086e-02  0 
 6.277362e-03  -1.267036e-02  0 
 7.413238e-03  -1.277339e-02  0 
 7.336310e-03  -1.403257e-02  0 
 6.572525e-03  -1.271762e-02  0 
 8.648791e-03  -1.456027e-02  0 
 6.804892e-03  -1.415114e-02  0 
 6.106064e-03  -1.234250e-02  0 
 7.050798e-03  -1.368613e-02  0 
 6.403218e-03  -1.240341e-02  0 
 6.989702e-03  -1.321427e-02  0 
 7.355205e-03  -1.437688e-02  0 
 8.284083e-03  -1.284753e-02  0 
 8.683185e-03  -1.402649e-02  0 
 8.396408e-03  -1.403219e-02  0 
 8.900015e-03  -1.434062e-02  0 
 9.385761e-03  -1.465057e-02  0 
 9.942964e-03  -1.474523e-02  0 
 8.660496e-03  -1.357215e-02  0 
 9.523962e-03  -1.476098e-02  0 
 7.848848e-03  -1.282573e-02  0 
VECTORS displacement_ITER13 FLOAT
 5.700074e-03  -1.192913e-02  0 
 8.865448e-03  -1.224243e-02  0 
 6.169421e-03  -1.449903e-02  0 
 1.058719e-02  -1.478403e-02  0 
 6.019922e-03  -1.207512e-02  0 
 6.528252e-03  -1.217479e-02  0 
 7.094191e-03  -1.221235e-02  0 
 7.685841e-03  -1.222970e-02  0 
 8.279320e-03  -1.224217e-02  0 
 5.866020e-03  -1.216774e-02  0 
 5.970934e-03  -1.251960e-02  0 
 6.045371e-03  -1.294885e-02  0 
 6.106693e-03  -1.340501e-02  0 
 6.148274e-03  -1.391452e-02  0 
 9.125359e-03  -1.331873e-02  0 
 9.258501e-03  -1.407501e-02  0 
 9.387967e-03  -1.466487e-02  0 
 9.594261e-03  -1.497991e-02  0 
 9.907559e-03  -1.510504e-02  0 
 6.957155e-03  -1.460543e-02  0 
 7.699172e-03  -1.466954e-02  0 
 8.437323e-03  -1.471769e-02  0 
 9.160459e-03  -1.474814e-02  0 
 9.879739e-03  -1.477011e-02  0 
 7.677490e-03  -1.358622e-02  0 
 8.877868e-03  -1.447915e-02  0 
 7.243165e-03  -1.311955e-02  0 
 8.028037e-03  -1.422371e-02  0 
 6.752457e-03  -1.331082e-02  0 
 7.979090e-03  -1.340734e-02  0 
 7.471432e-03  -1.375854e-02  0 
 8.231387e-03  -1.409269e-02  0 
 7.926196e-03  -1.441785e-02  0 
 9.050423e-03  -1.454604e-02  0 
 6.901157e-03  -1.265485e-02  0 
 6.616944e-03  -1.362199e-02  0 
 6.277986e-03  -1.267326e-02  0 
 7.414110e-03  -1.278042e-02  0 
 7.337696e-03  -1.403400e-02  0 
 6.574343e-03  -1.272203e-02  0 
 8.642885e-03  -1.455885e-02  0 
 6.806349e-03  -1.415216e-02  0 
 6.109352e-03  -1.234799e-02  0 
 7.052249e-03  -1.368801e-02  0 
 6.406293e-03  -1.241177e-02  0 
 6.990670e-03  -1.321793e-02  0 
 7.356721e-03  -1.437765e-02  0 
 8.289951e-03  -1.284972e-02  0 
 8.683860e-03  -1.402813e-02  0 
 8.395884e-03  -1.403487e-02  0 
 8.899393e-03  -1.434143e-02  0 
 9.383228e-03  -1.465192e-02  0 
 9.941520e-03  -1.474598e-02  0 
 8.663568e-03  -1.357300e-02  0 
 9.522417e-03  -1.476145e-02  0 
 7.852102e-03  -1.283045e-02  0 
VECTORS displacement_ITER14 FLOAT
 5.695993e-03  -1.192676e-02  0 
 8.871264e-03  -1.225141e-02  0 
 6.173496e-03  -1.449476e-02  0 
 1.058387e-02  -1.478837e-02  0 
 6.010915e-03  -1.208177e-02  0 
 6.530962e-03  -1.217520e-02  0 
 7.096038e-03  -1.222202e-02  0 
 7.676830e-03  -1.224492e-02  0 
 8.276597e-03  -1.224969e-02  0 
 5.865595e-03  -1.216291e-02  0 
 5.966333e-03  -1.252092e-02  0 
 6.039307e-03  -1.295279e-02  0 
 6.102461e-03  -1.341147e-02  0 
 6.148928e-03  -1.391370e-02  0 
 9.125319e-03  -1.332808e-02  0 
 9.254269e-03  -1.408343e-02  0 
 9.382707e-03  -1.467003e-02  0 
 9.588418e-03  -1.498172e-02  0 
 9.902476e-03  -1.510573e-02  0 
 6.950168e-03  -1.460374e-02  0 
 7.698160e-03  -1.467606e-02  0 
 8.437636e-03  -1.471713e-02  0 
 9.155799e-03  -1.474448e-02  0 
 9.876040e-03  -1.476806e-02  0 
 7.677284e-03  -1.359011e-02  0 
 8.876150e-03  -1.448121e-02  0 
 7.243797e-03  -1.312422e-02  0 
 8.028019e-03  -1.422644e-02  0 
 6.751535e-03  -1.331403e-02  0 
 7.976557e-03  -1.341452e-02  0 
 7.470632e-03  -1.376131e-02  0 
 8.231017e-03  -1.409631e-02  0 
 7.926512e-03  -1.441993e-02  0 
 9.047247e-03  -1.454985e-02  0 
 6.903493e-03  -1.266011e-02  0 
 6.613017e-03  -1.362875e-02  0 
 6.276536e-03  -1.267344e-02  0 
 7.413275e-03  -1.278631e-02  0 
 7.334823e-03  -1.403635e-02  0 
 6.572601e-03  -1.272699e-02  0 
 8.641884e-03  -1.456015e-02  0 
 6.801821e-03  -1.415483e-02  0 
 6.105216e-03  -1.234918e-02  0 
 7.050623e-03  -1.369173e-02  0 
 6.402969e-03  -1.241768e-02  0 
 6.990158e-03  -1.322176e-02  0 
 7.352147e-03  -1.437914e-02  0 
 8.285511e-03  -1.286229e-02  0 
 8.680928e-03  -1.403597e-02  0 
 8.394223e-03  -1.404039e-02  0 
 8.896205e-03  -1.434695e-02  0 
 9.379067e-03  -1.465064e-02  0 
 9.936392e-03  -1.474615e-02  0 
 8.659930e-03  -1.358384e-02  0 
 9.517536e-03  -1.476203e-02  0 
 7.846906e-03  -1.284045e-02  0 
VECTORS displacement_ITER15 FLOAT
 5.686391e-03  -1.192533e-02  0 
 8.874147e-03  -1.225382e-02  0 
 6.176948e-03  -1.450112e-02  0 
 1.058123e-02  -1.478917e-02  0 
 6.007676e-03  -1.208290e-02  0 
 6.526897e-03  -1.217353e-02  0 
 7.094782e-03  -1.222339e-02  0 
 7.680168e-03  -1.224315e-02  0 
 8.276723e-03  -1.224838e-02  0 
 5.864677e-03  -1.215607e-02  0 
 5.970071e-03  -1.251507e-02  0 
 6.045814e-03  -1.294527e-02  0 
 6.104078e-03  -1.340749e-02  0 
 6.154192e-03  -1.390901e-02  0 
 9.127136e-03  -1.332746e-02  0 
 9.255069e-03  -1.408230e-02  0 
 9.382750e-03  -1.466906e-02  0 
 9.588287e-03  -1.498144e-02  0 
 9.901688e-03  -1.510538e-02  0 
 6.952989e-03  -1.460524e-02  0 
 7.697643e-03  -1.466628e-02  0 
 8.435797e-03  -1.471191e-02  0 
 9.158720e-03  -1.474181e-02  0 
 9.877371e-03  -1.476586e-02  0 
 7.676901e-03  -1.359080e-02  0 