# vtk DataFile Version 3.1
this is an vtk file created by FEMAC
ASCII
DATASET UNSTRUCTURED_GRID
POINTS 56 FLOAT
5.000000 4.000000 0.000000
5.000000 5.000000 0.000000
6.000000 4.000000 0.000000
6.000000 5.000000 0.000000
5.000000 4.166667 0.000000
5.000000 4.333333 0.000000
5.000000 4.500000 0.000000
5.000000 4.666667 0.000000
5.000000 4.833333 0.000000
5.166667 4.000000 0.000000
5.333333 4.000000 0.000000
5.500000 4.000000 0.000000
5.666667 4.000000 0.000000
5.833333 4.000000 0.000000
5.166667 5.000000 0.000000
5.333333 5.000000 0.000000
5.500000 5.000000 0.000000
5.666667 5.000000 0.000000
5.833333 5.000000 0.000000
6.000000 4.166667 0.000000
6.000000 4.333333 0.000000
6.000000 4.500000 0.000000
6.000000 4.666667 0.000000
6.000000 4.833333 0.000000
5.411798 4.515321 0.000000
5.745603 4.677184 0.000000
5.274071 4.453938 0.000000
5.739044 4.466211 0.000000
5.514701 4.207096 0.000000
5.267057 4.672692 0.000000
5.581086 4.382084 0.000000
5.585709 4.579012 0.000000
5.869143 4.405413 0.000000
5.600164 4.811403 0.000000
5.134901 4.406943 0.000000
5.687686 4.125875 0.000000
5.318278 4.124552 0.000000
5.133615 4.560851 0.000000
5.756587 4.289898 0.000000
5.219801 4.272319 0.000000
5.879348 4.573596 0.000000
5.857802 4.144759 0.000000
5.140200 4.141903 0.000000
5.635015 4.251238 0.000000
5.098980 4.264233 0.000000
5.391396 4.326742 0.000000
5.896707 4.268014 0.000000
5.115309 4.814347 0.000000
5.374326 4.821866 0.000000
5.457505 4.695152 0.000000
5.488292 4.830040 0.000000
5.876381 4.755243 0.000000
5.893418 4.897401 0.000000
5.247781 4.862867 0.000000
5.769261 4.856872 0.000000
5.128995 4.678639 0.000000
CELLS 86 344 
3 24 29 26
3 25 31 27
3 30 31 24
3 30 27 31
3 36  9 10
3 13 35 12
3 34  6  5
3 33 31 25
3 21 32 20
3 34 37  6
3 37 34 26
3 21 40 32
3 40 27 32
3 41 13  2
3 19 41  2
3 42  4  0
3 9 42  0
3 37  7  6
3 40 25 27
3 34 39 26
3 30 38 27
3 38 32 27
3 29 37 26
3 28 43 30
3 38 43 35
3 43 38 30
3 43 28 35
3 44 34  5
3 34 44 39
3 45 39 36
3 28 45 36
3 32 46 20
3 46 32 38
3 46 19 20
3 4 44  5
3 11 28 36
3 28 11 35
3 12 35 11
3 36 10 11
3 40 21 22
3 41 19 46
3 41 35 13
3 38 35 41
3 41 46 38
3 4 42 44
3 36 42  9
3 36 39 42
3 44 42 39
3 45 24 26
3 45 30 24
3 39 45 26
3 45 28 30
3 8 47  1
3 47 14  1
3 24 49 29
3 49 48 29
3 51 22 23
3 18 52  3
3 52 23  3
3 53 47 29
3 48 53 29
3 17 54 18
3 54 17 33
3 52 51 23
3 51 40 22
3 25 40 51
3 54 52 18
3 15 48 16
3 16 33 17
3 50 33 16
3 48 50 16
3 31 49 24
3 49 31 33
3 50 48 49
3 33 50 49
3 53 15 14
3 15 53 48
3 47 53 14
3 47  8  7
3 55  7 37
3 55 29 47
3 29 55 37
3 7 55 47
3 25 54 33
3 51 54 25
3 54 51 52
CELL_TYPES 86
5 5 5 5 5 5 5 5 5 5 5 5 5 5 5 5 5 5 5 5 5 5 5 5 5 5 5 5 5 5 5 5 5 5 5 5 5 5 5 5 5 5 5 5 5 5 5 5 5 5 5 5 5 5 5 5 5 5 5 5 5 5 5 5 5 5 5 5 5 5 5 5 5 5 5 5 5 5 5 5 5 5 5 5 5 5 
POINT_DATA 56
VECTORS displacement_ITER1 FLOAT
 9.159697e-03  -2.227260e-02  0 
 1.305369e-02  -2.433922e-02  0 
 9.074782e-03  -2.774661e-02  0 
 1.332476e-02  -2.900438e-02  0 
 9.109396e-03  -2.233030e-02  0 
 1.041139e-02  -2.216528e-02  0 
 1.126535e-02  -2.233821e-02  0 
 1.179745e-02  -2.220925e-02  0 
 1.239596e-02  -2.315914e-02  0 
 8.706887e-03  -2.422343e-02  0 
 8.829716e-03  -2.510943e-02  0 
 8.740676e-03  -2.589127e-02  0 
 8.767432e-03  -2.649689e-02  0 
 8.801754e-03  -2.705402e-02  0 
 1.334359e-02  -2.423757e-02  0 
 1.364329e-02  -2.493370e-02  0 
 1.372794e-02  -2.593842e-02  0 
 1.390040e-02  -2.707207e-02  0 
 1.380827e-02  -2.801255e-02  0 
 9.748634e-03  -2.825875e-02  0 
 1.044019e-02  -2.865128e-02  0 
 1.117024e-02  -2.892025e-02  0 
 1.199112e-02  -2.908873e-02  0 
 1.283272e-02  -2.910433e-02  0 
 1.118949e-02  -2.553640e-02  0 
 1.199086e-02  -2.766950e-02  0 
 1.086690e-02  -2.449604e-02  0 
 1.090700e-02  -2.757095e-02  0 
 9.512794e-03  -2.610080e-02  0 
 1.209387e-02  -2.450593e-02  0 
 1.043219e-02  -2.661112e-02  0 
 1.150322e-02  -2.668703e-02  0 
 1.066456e-02  -2.818234e-02  0 
 1.273535e-02  -2.667632e-02  0 
 1.073932e-02  -2.346094e-02  0 
 9.224915e-03  -2.677935e-02  0 
 9.135834e-03  -2.499635e-02  0 
 1.143356e-02  -2.334788e-02  0 
 1.004910e-02  -2.746117e-02  0 
 9.923670e-03  -2.420547e-02  0 
 1.147558e-02  -2.839477e-02  0 
 9.486584e-03  -2.761030e-02  0 
 9.283166e-03  -2.352395e-02  0 
 9.784385e-03  -2.675239e-02  0 
 9.859398e-03  -2.327655e-02  0 
 1.013119e-02  -2.538413e-02  0 
 1.006849e-02  -2.806618e-02  0 
 1.276070e-02  -2.368599e-02  0 
 1.282983e-02  -2.521727e-02  0 
 1.216252e-02  -2.581648e-02  0 
 1.285102e-02  -2.595913e-02  0 
 1.242849e-02  -2.847953e-02  0 
 1.310886e-02  -2.861811e-02  0 
 1.300866e-02  -2.443420e-02  0 
 1.297811e-02  -2.782675e-02  0 
 1.201106e-02  -2.347635e-02  0 
VECTORS displacement_ITER2 FLOAT
 6.445097e-03  -1.617758e-02  0 
 1.004406e-02  -1.779619e-02  0 
 6.825076e-03  -2.148831e-02  0 
 9.787439e-03  -2.245555e-02  0 
 6.884939e-03  -1.700248e-02  0 
 7.267742e-03  -1.813596e-02  0 
 7.640359e-03  -1.850396e-02  0 
 8.162656e-03  -1.833879e-02  0 
 8.645950e-03  -1.785640e-02  0 
 6.703946e-03  -1.770990e-02  0 
 6.969083e-03  -1.840488e-02  0 
 7.003622e-03  -1.901047e-02  0 
 6.779975e-03  -1.978787e-02  0 
 6.727524e-03  -2.065697e-02  0 
 9.820885e-03  -1.865217e-02  0 
 9.334407e-03  -1.972788e-02  0 
 9.203294e-03  -2.037814e-02  0 
 9.400568e-03  -2.086955e-02  0 
 9.512938e-03  -2.152079e-02  0 
 7.549858e-03  -2.151838e-02  0 
 8.040724e-03  -2.150476e-02  0 
 8.387560e-03  -2.157177e-02  0 
 8.654054e-03  -2.174682e-02  0 
 9.002667e-03  -2.201994e-02  0 
 8.044687e-03  -1.980443e-02  0 
 8.563859e-03  -2.112238e-02  0 
 7.794531e-03  -1.919741e-02  0 
 8.208011e-03  -2.088565e-02  0 
 7.467023e-03  -1.956257e-02  0 
 8.235620e-03  -1.950777e-02  0 
 7.930557e-03  -2.019066e-02  0 
 8.313276e-03  -2.053336e-02  0 
 8.173458e-03  -2.119286e-02  0 
 8.822536e-03  -2.068303e-02  0 
 7.591146e-03  -1.868007e-02  0 
 7.332528e-03  -2.003049e-02  0 
 7.186850e-03  -1.869215e-02  0 
 7.850790e-03  -1.891370e-02  0 
 7.873939e-03  -2.066757e-02  0 
 7.488147e-03  -1.860399e-02  0 
 8.449586e-03  -2.139389e-02  0 
 7.452600e-03  -2.092566e-02  0 
 7.116478e-03  -1.787851e-02  0 
 7.661448e-03  -2.010822e-02  0 
 7.367794e-03  -1.811218e-02  0 
 7.671132e-03  -1.935810e-02  0 
 7.855387e-03  -2.117428e-02  0 
 8.591514e-03  -1.874773e-02  0 
 8.763214e-03  -2.003896e-02  0 
 8.491885e-03  -2.021228e-02  0 
 8.823407e-03  -2.035786e-02  0 
 8.755597e-03  -2.155792e-02  0 
 9.155764e-03  -2.170069e-02  0 
 8.863133e-03  -1.952225e-02  0 
 8.985385e-03  -2.124888e-02  0 
 8.216399e-03  -1.888171e-02  0 
VECTORS displacement_ITER3 FLOAT
 4.966954e-03  -1.550597e-02  0 
 8.065040e-03  -1.594444e-02  0 
 5.079764e-03  -1.889458e-02  0 
 8.179015e-03  -1.994615e-02  0 
 5.355955e-03  -1.532854e-02  0 
 5.936374e-03  -1.508817e-02  0 
 6.282383e-03  -1.501272e-02  0 
 6.903138e-03  -1.518271e-02  0 
 7.267739e-03  -1.546149e-02  0 
 5.110486e-03  -1.608688e-02  0 
 4.943532e-03  -1.636869e-02  0 
 4.846521e-03  -1.689637e-02  0 
 4.955805e-03  -1.745278e-02  0 
 5.147221e-03  -1.810380e-02  0 
 8.095335e-03  -1.626054e-02  0 
 8.180748e-03  -1.724854e-02  0 
 8.138172e-03  -1.811457e-02  0 
 8.130437e-03  -1.891205e-02  0 
 8.100665e-03  -1.959075e-02  0 
 5.824709e-03  -1.915652e-02  0 
 6.326571e-03  -1.939488e-02  0 
 6.754201e-03  -1.967015e-02  0 
 7.201128e-03  -1.988239e-02  0 
 7.673039e-03  -1.999343e-02  0 
 6.458345e-03  -1.746799e-02  0 
 7.126730e-03  -1.906491e-02  0 
 6.196283e-03  -1.669254e-02  0 
 6.487661e-03  -1.879922e-02  0 
 5.520492e-03  -1.741921e-02  0 
 6.978672e-03  -1.681689e-02  0 
 6.111875e-03  -1.804298e-02  0 
 6.752483e-03  -1.832899e-02  0 
 6.413592e-03  -1.914307e-02  0 
 7.499042e-03  -1.856829e-02  0 
 6.016282e-03  -1.584293e-02  0 
 5.406772e-03  -1.788288e-02  0 
 5.149975e-03  -1.645331e-02  0 
 6.550426e-03  -1.596101e-02  0 
 5.987420e-03  -1.853184e-02  0 
 5.536786e-03  -1.628594e-02  0 
 6.881221e-03  -1.942192e-02  0 
 5.639948e-03  -1.851755e-02  0 
 5.227848e-03  -1.601970e-02  0 
 5.756038e-03  -1.797720e-02  0 
 5.593104e-03  -1.575569e-02  0 
 5.800411e-03  -1.712615e-02  0 
 6.066031e-03  -1.895736e-02  0 
 7.418800e-03  -1.605424e-02  0 
 7.495058e-03  -1.746240e-02  0 
 7.089059e-03  -1.783109e-02  0 
 7.544509e-03  -1.803121e-02  0 
 7.415064e-03  -1.957836e-02  0 
 7.861706e-03  -1.968334e-02  0 
 7.610483e-03  -1.675797e-02  0 
 7.692148e-03  -1.928448e-02  0 
 6.968618e-03  -1.602085e-02  0 
VECTORS displacement_ITER4 FLOAT
 4.107573e-03  -1.487528e-02  0 
 6.812134e-03  -1.503014e-02  0 
 4.414405e-03  -1.779895e-02  0 
 7.101542e-03  -1.948929e-02  0 
 4.542879e-03  -1.483835e-02  0 
 5.070405e-03  -1.456018e-02  0 
 5.596231e-03  -1.457713e-02  0 
 6.072685e-03  -1.461327e-02  0 
 6.355329e-03  -1.485474e-02  0 
 4.161920e-03  -1.545575e-02  0 
 4.185982e-03  -1.592151e-02  0 
 4.218205e-03  -1.650719e-02  0 
 4.292016e-03  -1.692016e-02  0 
 4.388178e-03  -1.737988e-02  0 
 6.997069e-03  -1.569801e-02  0 
 7.066823e-03  -1.651844e-02  0 
 7.061551e-03  -1.728773e-02  0 
 7.068873e-03  -1.814061e-02  0 
 7.094204e-03  -1.894596e-02  0 
 4.991413e-03  -1.825582e-02  0 
 5.389397e-03  -1.859242e-02  0 
 5.756435e-03  -1.889730e-02  0 
 6.158280e-03  -1.915434e-02  0 
 6.632923e-03  -1.936243e-02  0 
 5.526835e-03  -1.685766e-02  0 
 6.069782e-03  -1.835961e-02  0 
 5.347170e-03  -1.616318e-02  0 
 5.501521e-03  -1.811006e-02  0 
 4.688752e-03  -1.691504e-02  0 
 6.046604e-03  -1.614737e-02  0 
 5.179610e-03  -1.743033e-02  0 
 5.754292e-03  -1.765994e-02  0 
 5.444201e-03  -1.840576e-02  0 
 6.439031e-03  -1.782097e-02  0 
 5.239034e-03  -1.540414e-02  0 
 4.593986e-03  -1.726673e-02  0 
 4.405524e-03  -1.607428e-02  0 
 5.731874e-03  -1.539873e-02  0 
 5.065524e-03  -1.784355e-02  0 
 4.757714e-03  -1.583881e-02  0 
 5.852165e-03  -1.869532e-02  0 
 4.777709e-03  -1.777173e-02  0 
 4.426003e-03  -1.545731e-02  0 
 4.876504e-03  -1.737314e-02  0 
 4.759534e-03  -1.523917e-02  0 
 4.953693e-03  -1.661932e-02  0 
 5.146952e-03  -1.819678e-02  0 
 6.431334e-03  -1.535960e-02  0 
 6.499335e-03  -1.672835e-02  0 
 6.095591e-03  -1.713898e-02  0 
 6.513145e-03  -1.728205e-02  0 
 6.340339e-03  -1.888877e-02  0 
 6.781426e-03  -1.908909e-02  0 
 6.612586e-03  -1.608251e-02  0 
 6.602753e-03  -1.857493e-02  0 
 6.079630e-03  -1.539616e-02  0 
VECTORS displacement_ITER5 FLOAT
 3.835626e-03  -1.451702e-02  0 
 6.520741e-03  -1.450596e-02  0 
 3.712985e-03  -1.749809e-02  0 
 6.592274e-03  -1.938945e-02  0 
 4.202644e-03  -1.451407e-02  0 
 4.448460e-03  -1.450694e-02  0 
 4.979078e-03  -1.453527e-02  0 
 5.452039e-03  -1.459361e-02  0 
 5.975430e-03  -1.460574e-02  0 
 3.825021e-03  -1.515065e-02  0 
 3.823440e-03  -1.556858e-02  0 
 3.821960e-03  -1.600658e-02  0 
 3.786560e-03  -1.643125e-02  0 
 3.740283e-03  -1.682063e-02  0 
 6.506858e-03  -1.552887e-02  0 
 6.486966e-03  -1.639769e-02  0 
 6.483441e-03  -1.709628e-02  0 
 6.473327e-03  -1.780706e-02  0 
 6.502935e-03  -1.855008e-02  0 
 4.524678e-03  -1.789703e-02  0 
 4.987627e-03  -1.816643e-02  0 
 5.335182e-03  -1.846079e-02  0 
 5.666602e-03  -1.872869e-02  0 
 6.054946e-03  -1.899693e-02  0 
 5.001407e-03  -1.657293e-02  0 
 5.560514e-03  -1.803855e-02  0 
 4.793416e-03  -1.590346e-02  0 
 5.062903e-03  -1.771735e-02  0 
 4.227395e-03  -1.643899e-02  0 
 5.467911e-03  -1.600766e-02  0 
 4.721569e-03  -1.701788e-02  0 
 5.254862e-03  -1.735314e-02  0 
 5.036402e-03  -1.797995e-02  0 
 5.895254e-03  -1.756302e-02  0 
 4.660300e-03  -1.522984e-02  0 
 4.113011e-03  -1.670831e-02  0 
 3.996485e-03  -1.570442e-02  0 
 5.128052e-03  -1.527654e-02  0 
 4.644438e-03  -1.737298e-02  0 
 4.314543e-03  -1.549929e-02  0 
 5.398375e-03  -1.830414e-02  0 
 4.308823e-03  -1.727332e-02  0 
 4.067603e-03  -1.512373e-02  0 
 4.424905e-03  -1.688400e-02  0 
 4.311510e-03  -1.495415e-02  0 
 4.476480e-03  -1.622912e-02  0 
 4.737674e-03  -1.775103e-02  0 
 5.894025e-03  -1.526150e-02  0 
 5.942717e-03  -1.657473e-02  0 
 5.556736e-03  -1.691650e-02  0 
 5.961120e-03  -1.707362e-02  0 
 5.791188e-03  -1.853322e-02  0 
 6.162503e-03  -1.874513e-02  0 
 6.057654e-03  -1.596952e-02  0 
 6.021844e-03  -1.823754e-02  0 
 5.486944e-03  -1.529759e-02  0 
VECTORS displacement_ITER6 FLOAT
 3.556123e-03  -1.447650e-02  0 
 6.153243e-03  -1.448515e-02  0 
 3.687996e-03  -1.711115e-02  0 
 6.315155e-03  -1.924294e-02  0 
 3.943369e-03  -1.441803e-02  0 
 4.497284e-03  -1.436754e-02  0 
 4.936934e-03  -1.437837e-02  0 
 5.346897e-03  -1.436782e-02  0 
 5.770829e-03  -1.447857e-02  0 
 3.521296e-03  -1.502715e-02  0 
 3.588868e-03  -1.544730e-02  0 
 3.622041e-03  -1.584626e-02  0 
 3.629843e-03  -1.629556e-02  0 
 3.659115e-03  -1.671050e-02  0 
 6.256096e-03  -1.543187e-02  0 
 6.315972e-03  -1.621577e-02  0 
 6.314186e-03  -1.698801e-02  0 
 6.344351e-03  -1.773675e-02  0 
 6.372822e-03  -1.844685e-02  0 
 4.376656e-03  -1.766550e-02  0 
 4.800357e-03  -1.803089e-02  0 
 5.157712e-03  -1.835808e-02  0 
 5.515745e-03  -1.864465e-02  0 
 5.920013e-03  -1.890249e-02  0 
 4.859428e-03  -1.642747e-02  0 
 5.400268e-03  -1.791865e-02  0 
 4.685595e-03  -1.575853e-02  0 
 4.877545e-03  -1.759687e-02  0 
 4.047709e-03  -1.635227e-02  0 
 5.333283e-03  -1.581865e-02  0 
 4.542738e-03  -1.691028e-02  0 
 5.091393e-03  -1.721368e-02  0 
 4.844297e-03  -1.785945e-02  0 
 5.739740e-03  -1.742914e-02  0 
 4.608745e-03  -1.507558e-02  0 
 3.956159e-03  -1.662088e-02  0 
 3.780467e-03  -1.563256e-02  0 
 5.029615e-03  -1.508685e-02  0 
 4.449112e-03  -1.725639e-02  0 
 4.169957e-03  -1.543473e-02  0 
 5.226133e-03  -1.819597e-02  0 
 4.131075e-03  -1.713660e-02  0 
 3.823402e-03  -1.503652e-02  0 
 4.243512e-03  -1.679092e-02  0 
 4.198464e-03  -1.489930e-02  0 
 4.317955e-03  -1.614072e-02  0 
 4.542209e-03  -1.761439e-02  0 
 5.737269e-03  -1.506177e-02  0 
 5.779802e-03  -1.640085e-02  0 
 5.401634e-03  -1.675598e-02  0 
 5.800316e-03  -1.692946e-02  0 
 5.649627e-03  -1.844445e-02  0 
 6.006706e-03  -1.868632e-02  0 
 5.899286e-03  -1.577586e-02  0 
 5.880863e-03  -1.814910e-02  0 
 5.364754e-03  -1.509821e-02  0 
VECTORS displacement_ITER7 FLOAT
 3.515317e-03  -1.442641e-02  0 
 6.175142e-03  -1.453078e-02  0 
 3.447106e-03  -1.702023e-02  0 
 6.246133e-03  -1.913392e-02  0 
 3.792910e-03  -1.430085e-02  0 
 4.265702e-03  -1.426922e-02  0 
 4.693709e-03  -1.418898e-02  0 
 5.187881e-03  -1.422465e-02  0 
 5.722126e-03  -1.431127e-02  0 
 3.481396e-03  -1.480493e-02  0 
 3.424586e-03  -1.524643e-02  0 
 3.404298e-03  -1.565697e-02  0 
 3.439829e-03  -1.611132e-02  0 
 3.458059e-03  -1.658896e-02  0 
 6.190097e-03  -1.536578e-02  0 
 6.229201e-03  -1.611963e-02  0 
 6.265947e-03  -1.691885e-02  0 
 6.251686e-03  -1.766502e-02  0 
 6.231143e-03  -1.839735e-02  0 
 4.216179e-03  -1.758810e-02  0 
 4.683987e-03  -1.795005e-02  0 
 5.067518e-03  -1.827677e-02  0 
 5.430249e-03  -1.855911e-02  0 
 5.820355e-03  -1.880772e-02  0 
 4.713851e-03  -1.632102e-02  0 
 5.308772e-03  -1.784694e-02  0 
 4.495066e-03  -1.562228e-02  0 
 4.772197e-03  -1.748675e-02  0 
 3.896766e-03  -1.616008e-02  0 
 5.213591e-03  -1.574465e-02  0 
 4.412806e-03  -1.676709e-02  0 
 4.976152e-03  -1.712204e-02  0 
 4.739152e-03  -1.775724e-02  0 
 5.648858e-03  -1.737703e-02  0 
 4.372308e-03  -1.491690e-02  0 
 3.784570e-03  -1.646192e-02  0 
 3.624515e-03  -1.537870e-02  0 
 4.844699e-03  -1.496241e-02  0 
 4.318020e-03  -1.711961e-02  0 
 3.975637e-03  -1.523572e-02  0 
 5.139274e-03  -1.810935e-02  0 
 3.959904e-03  -1.700826e-02  0 
 3.665616e-03  -1.485335e-02  0 
 4.102439e-03  -1.663051e-02  0 
 4.003540e-03  -1.473818e-02  0 
 4.153645e-03  -1.596035e-02  0 
 4.409911e-03  -1.750871e-02  0 
 5.689688e-03  -1.498678e-02  0 
 5.696336e-03  -1.631618e-02  0 
 5.289623e-03  -1.667934e-02  0 
 5.716167e-03  -1.685971e-02  0 
 5.561006e-03  -1.836399e-02  0 
 5.912920e-03  -1.858698e-02  0 
 5.835714e-03  -1.569479e-02  0 
 5.784695e-03  -1.809157e-02  0 
 5.233492e-03  -1.499546e-02  0 
VECTORS displacement_ITER8 FLOAT
 3.418654e-03  -1.430983e-02  0 
 6.175590e-03  -1.447807e-02  0 
 3.514273e-03  -1.691629e-02  0 
 6.208711e-03  -1.914664e-02  0 
 3.882057e-03  -1.429510e-02  0 
 4.334969e-03  -1.436481e-02  0 
 4.772755e-03  -1.436047e-02  0 
 5.202950e-03  -1.434922e-02  0 
 5.670286e-03  -1.435946e-02  0 
 3.440635e-03  -1.483080e-02  0 
 3.486622e-03  -1.529397e-02  0 
 3.514537e-03  -1.571903e-02  0 
 3.525653e-03  -1.612107e-02  0 
 3.525435e-03  -1.653632e-02  0 
 6.176298e-03  -1.537692e-02  0 
 6.166294e-03  -1.614198e-02  0 
 6.216211e-03  -1.689053e-02  0 
 6.238962e-03  -1.762792e-02  0 
 6.224552e-03  -1.839837e-02  0 
 4.268580e-03  -1.751292e-02  0 
 4.710640e-03  -1.788686e-02  0 
 5.070382e-03  -1.822267e-02  0 
 5.420311e-03  -1.852132e-02  0 
 5.810765e-03  -1.879673e-02  0 
 4.736273e-03  -1.632766e-02  0 
 5.289891e-03  -1.781652e-02  0 
 4.550733e-03  -1.566868e-02  0 
 4.779687e-03  -1.746049e-02  0 
 3.949994e-03  -1.619892e-02  0 
 5.203269e-03  -1.576548e-02  0 
 4.438901e-03  -1.676683e-02  0 
 4.975956e-03  -1.710481e-02  0 
 4.752890e-03  -1.771610e-02  0 
 5.619157e-03  -1.734215e-02  0 
 4.459674e-03  -1.501283e-02  0 
 3.841297e-03  -1.645004e-02  0 
 3.704950e-03  -1.548225e-02  0 
 4.880288e-03  -1.504442e-02  0 
 4.347289e-03  -1.709389e-02  0 
 4.072694e-03  -1.531341e-02  0 
 5.131698e-03  -1.807023e-02  0 
 4.008387e-03  -1.695545e-02  0 
 3.743994e-03  -1.491001e-02  0 
 4.141227e-03  -1.663036e-02  0 
 4.100969e-03  -1.479532e-02  0 
 4.214002e-03  -1.600438e-02  0 
 4.444084e-03  -1.745822e-02  0 
 5.625732e-03  -1.503065e-02  0 
 5.663420e-03  -1.631991e-02  0 
 5.277214e-03  -1.666982e-02  0 
 5.683987e-03  -1.684154e-02  0 
 5.541105e-03  -1.833991e-02  0 
 5.891146e-03  -1.859306e-02  0 
 5.784336e-03  -1.573745e-02  0 
 5.755808e-03  -1.807206e-02  0 
 5.229884e-03  -1.506168e-02  0 
VECTORS displacement_ITER9 FLOAT
 3.388746e-03  -1.438123e-02  0 
 6.191915e-03  -1.449083e-02  0 
 3.488573e-03  -1.696892e-02  0 
 6.215298e-03  -1.911936e-02  0 
 3.840452e-03  -1.433399e-02  0 
 4.290946e-03  -1.429854e-02  0 
 4.759296e-03  -1.429575e-02  0 
 5.201975e-03  -1.427770e-02  0 
 5.659820e-03  -1.432721e-02  0 
 3.434995e-03  -1.479480e-02  0 
 3.451364e-03  -1.523016e-02  0 
 3.466456e-03  -1.566918e-02  0 
 3.469684e-03  -1.610820e-02  0 
 3.472962e-03  -1.654733e-02  0 
 6.186853e-03  -1.534608e-02  0 
 6.204014e-03  -1.614527e-02  0 
 6.227829e-03  -1.689272e-02  0 
 6.227369e-03  -1.762505e-02  0 
 6.220834e-03  -1.837322e-02  0 
 4.239636e-03  -1.754420e-02  0 
 4.694299e-03  -1.790787e-02  0 
 5.064612e-03  -1.823334e-02  0 
 5.415691e-03  -1.851996e-02  0 
 5.804801e-03  -1.878155e-02  0 
 4.721443e-03  -1.631685e-02  0 
 5.293468e-03  -1.781703e-02  0 
 4.524098e-03  -1.564525e-02  0 
 4.773483e-03  -1.746336e-02  0 
 3.921497e-03  -1.616558e-02  0 
 5.203046e-03  -1.574265e-02  0 
 4.422730e-03  -1.675737e-02  0 
 4.973212e-03  -1.710444e-02  0 
 4.744634e-03  -1.772435e-02  0 
 5.627068e-03  -1.734677e-02  0 
 4.425845e-03  -1.497517e-02  0 
 3.808818e-03  -1.643889e-02  0 
 3.663485e-03  -1.541913e-02  0 
 4.867394e-03  -1.500070e-02  0 
 4.333634e-03  -1.709631e-02  0 
 4.013939e-03  -1.528491e-02  0 
 5.130077e-03  -1.807492e-02  0 
 3.983432e-03  -1.697899e-02  0 
 3.691257e-03  -1.489906e-02  0 
 4.120278e-03  -1.661662e-02  0 
 4.037609e-03  -1.476937e-02  0 
 4.178449e-03  -1.597878e-02  0 
 4.425337e-03  -1.747523e-02  0 
 5.634340e-03  -1.499887e-02  0 
 5.672808e-03  -1.631812e-02  0 
 5.280198e-03  -1.666756e-02  0 
 5.692757e-03  -1.684257e-02  0 
 5.540658e-03  -1.833185e-02  0 
 5.891174e-03  -1.856943e-02  0 
 5.794559e-03  -1.571211e-02  0 
 5.759406e-03  -1.805841e-02  0 
 5.229587e-03  -1.502038e-02  0 
VECTORS displacement_ITER10 FLOAT
 3.376709e-03  -1.438692e-02  0 
 6.157818e-03  -1.448925e-02  0 
 3.502266e-03  -1.697540e-02  0 
 6.231351e-03  -1.910296e-02  0 
 3.849105e-03  -1.434626e-02  0 
 4.300230e-03  -1.429490e-02  0 
 4.740598e-03  -1.427278e-02  0 
 5.210464e-03  -1.428656e-02  0 
 5.664651e-03  -1.435899e-02  0 
 3.429397e-03  -1.482598e-02  0 
 3.450398e-03  -1.524785e-02  0 
 3.465249e-03  -1.567863e-02  0 
 3.472330e-03  -1.610912e-02  0 
 3.479454e-03  -1.652960e-02  0 
 6.171107e-03  -1.533889e-02  0 
 6.212309e-03  -1.613321e-02  0 
 6.229045e-03  -1.689536e-02  0 
 6.234722e-03  -1.764653e-02  0 
 6.243553e-03  -1.838070e-02  0 
 4.244342e-03  -1.754075e-02  0 
 4.694339e-03  -1.790632e-02  0 
 5.062357e-03  -1.823823e-02  0 
 5.419756e-03  -1.852980e-02  0 
 5.819303e-03  -1.879023e-02  0 
 4.721843e-03  -1.631852e-02  0 
 5.296313e-03  -1.781622e-02  0 
 4.523597e-03  -1.564590e-02  0 
 4.770190e-03  -1.746653e-02  0 
 3.916021e-03  -1.617300e-02  0 
 5.205861e-03  -1.574203e-02  0 
 4.419597e-03  -1.676242e-02  0 
 4.973199e-03  -1.710423e-02  0 
 4.741129e-03  -1.772745e-02  0 
 5.630142e-03  -1.734750e-02  0 
 4.420144e-03  -1.496490e-02  0 
 3.806654e-03  -1.644019e-02  0 
 3.658632e-03  -1.543458e-02  0 
 4.869067e-03  -1.500292e-02  0 
 4.331287e-03  -1.710155e-02  0 
 4.010805e-03  -1.528782e-02  0 
 5.128709e-03  -1.807865e-02  0 
 3.989968e-03  -1.697627e-02  0 
 3.695569e-03  -1.491842e-02  0 
 4.116111e-03  -1.662159e-02  0 
 4.041702e-03  -1.477562e-02  0 
 4.174532e-03  -1.598418e-02  0 
 4.426380e-03  -1.747435e-02  0 
 5.638632e-03  -1.499917e-02  0 
 5.671307e-03  -1.631410e-02  0 
 5.280754e-03  -1.666540e-02  0 
 5.693519e-03  -1.684186e-02  0 
 5.549852e-03  -1.833615e-02  0 
 5.911676e-03  -1.857367e-02  0 
 5.794707e-03  -1.569909e-02  0 
 5.773647e-03  -1.806122e-02  0 
 5.234585e-03  -1.502259e-02  0 
VECTORS displacement_ITER11 FLOAT
 3.407251e-03  -1.436972e-02  0 
 6.174092e-03  -1.448638e-02  0 
 3.525424e-03  -1.699431e-02  0 
 6.244339e-03  -1.911565e-02  0 
 3.859215e-03  -1.434953e-02  0 
 4.303828e-03  -1.432176e-02  0 
 4.750612e-03  -1.430685e-02  0 
 5.201924e-03  -1.431959e-02  0 
 5.673117e-03  -1.438469e-02  0 
 3.448010e-03  -1.482125e-02  0 
 3.468853e-03  -1.525944e-02  0 
 3.483859e-03  -1.569685e-02  0 
 3.495040e-03  -1.611864e-02  0 
 3.503861e-03  -1.654364e-02  0 
 6.181772e-03  -1.535373e-02  0 
 6.203629e-03  -1.613864e-02  0 
 6.213801e-03  -1.689531e-02  0 
 6.222391e-03  -1.764508e-02  0 
 6.234636e-03  -1.838176e-02  0 
 4.261580e-03  -1.754845e-02  0 
 4.707081e-03  -1.790656e-02  0 
 5.068738e-03  -1.823294e-02  0 
 5.419250e-03  -1.852226e-02  0 
 5.814059e-03  -1.878691e-02  0 
 4.731674e-03  -1.633182e-02  0 
 5.296612e-03  -1.781639e-02  0 
 4.534218e-03  -1.566274e-02  0 
 4.781346e-03  -1.747108e-02  0 
 3.936959e-03  -1.618536e-02  0 
 5.207348e-03  -1.576352e-02  0 
 4.435578e-03  -1.677175e-02  0 
 4.980155e-03  -1.711209e-02  0 
 4.753109e-03  -1.772964e-02  0 
 5.625389e-03  -1.734964e-02  0 
 4.430666e-03  -1.498907e-02  0 
 3.827421e-03  -1.645236e-02  0 
 3.681490e-03  -1.544409e-02  0 
 4.873100e-03  -1.502552e-02  0 
 4.348867e-03  -1.711013e-02  0 
 4.030520e-03  -1.529886e-02  0 
 5.132985e-03  -1.807623e-02  0 
 4.010865e-03  -1.698727e-02  0 
 3.715857e-03  -1.491570e-02  0 
 4.135168e-03  -1.663198e-02  0 
 4.055188e-03  -1.478808e-02  0 
 4.193075e-03  -1.599566e-02  0 
 4.442816e-03  -1.747995e-02  0 
 5.638806e-03  -1.502678e-02  0 
 5.669562e-03  -1.632969e-02  0 
 5.282931e-03  -1.667760e-02  0 
 5.689375e-03  -1.684929e-02  0 
 5.545936e-03  -1.833177e-02  0 
 5.906807e-03  -1.856795e-02  0 
 5.794594e-03  -1.572208e-02  0 
 5.767099e-03  -1.805823e-02  0 
 5.232211e-03  -1.504862e-02  0 
VECTORS displacement_ITER12 FLOAT
 3.426456e-03  -1.439660e-02  0 
 6.176789e-03  -1.449493e-02  0 
 3.533894e-03  -1.700681e-02  0 
 6.249041e-03  -1.911677e-02  0 
 3.848777e-03  -1.435486e-02  0 
 4.300164e-03  -1.432850e-02  0 
 4.764944e-03  -1.431104e-02  0 
 5.211931e-03  -1.431545e-02  0 
 5.679267e-03  -1.438181e-02  0 
 3.455808e-03  -1.482282e-02  0 
 3.474057e-03  -1.525726e-02  0 
 3.487564e-03  -1.569055e-02  0 
 3.501718e-03  -1.612063e-02  0 
 3.513634e-03  -1.656270e-02  0 
 6.188490e-03  -1.535496e-02  0 
 6.215307e-03  -1.614506e-02  0 
 6.224696e-03  -1.690911e-02  0 
 6.231379e-03  -1.765475e-02  0 
 6.237737e-03  -1.838607e-02  0 
 4.268473e-03  -1.755943e-02  0 
 4.714307e-03  -1.791655e-02  0 
 5.077387e-03  -1.824201e-02  0 
 5.427775e-03  -1.853034e-02  0 
 5.819991e-03  -1.879126e-02  0 
 4.736869e-03  -1.634002e-02  0 
 5.305215e-03  -1.782626e-02  0 
 4.538580e-03  -1.567101e-02  0 
 4.788994e-03  -1.747947e-02  0 
 3.943549e-03  -1.618948e-02  0 
 5.214983e-03  -1.576727e-02  0 
 4.442350e-03  -1.677944e-02  0 
 4.986925e-03  -1.712098e-02  0 
 4.761300e-03  -1.773806e-02  0 
 5.634757e-03  -1.736021e-02  0 
 4.434020e-03  -1.499847e-02  0 
 3.837671e-03  -1.645944e-02  0 
 3.681563e-03  -1.544185e-02  0 
 4.881554e-03  -1.502793e-02  0 
 4.357207e-03  -1.711778e-02  0 
 4.029822e-03  -1.530483e-02  0 
 5.141715e-03  -1.808522e-02  0 
 4.018634e-03  -1.699959e-02  0 
 3.709664e-03  -1.491555e-02  0 
 4.143179e-03  -1.663904e-02  0 
 4.050523e-03  -1.479373e-02  0 
 4.197311e-03  -1.600247e-02  0 
 4.450123e-03  -1.748996e-02  0 
 5.647909e-03  -1.502493e-02  0 
 5.677504e-03  -1.633608e-02  0 
 5.290352e-03  -1.668551e-02  0 
 5.698117e-03  -1.685892e-02  0 
 5.554528e-03  -1.834012e-02  0 
 5.912973e-03  -1.857217e-02  0 
 5.803262e-03  -1.572335e-02  0 
 5.775789e-03  -1.806776e-02  0 
 5.241081e-03  -1.504878e-02  0 
VECTORS displacement_ITER13 FLOAT
 3.425433e-03  -1.439025e-02  0 
 6.171320e-03  -1.449583e-02  0 
 3.530211e-03  -1.698653e-02  0 
 6.243121e-03  -1.911680e-02  0 
 3.856097e-03  -1.434642e-02  0 
 4.311993e-03  -1.432972e-02  0 
 4.762751e-03  -1.430523e-02  0 
 5.217209e-03  -1.431356e-02  0 
 5.676456e-03  -1.437899e-02  0 
 3.456891e-03  -1.483389e-02  0 
 3.478926e-03  -1.526528e-02  0 
 3.490755e-03  -1.569200e-02  0 
 3.501874e-03  -1.611736e-02  0 
 3.511239e-03  -1.654885e-02  0 
 6.182837e-03  -1.535095e-02  0 
 6.213909e-03  -1.614704e-02  0 
 6.230346e-03  -1.691194e-02  0 
 6.239597e-03  -1.765402e-02  0 
 6.241178e-03  -1.838653e-02  0 
 4.268001e-03  -1.754848e-02  0 
 4.714144e-03  -1.791101e-02  0 
 5.078339e-03  -1.824060e-02  0 
 5.430876e-03  -1.853136e-02  0 
 5.823488e-03  -1.879235e-02  0 
 4.737155e-03  -1.633473e-02  0 
 5.306729e-03  -1.782518e-02  0 
 4.540458e-03  -1.566622e-02  0 
 4.787850e-03  -1.747522e-02  0 
 3.941589e-03  -1.618755e-02  0 
 5.215668e-03  -1.576196e-02  0 
 4.440516e-03  -1.677477e-02  0 
 4.986626e-03  -1.711649e-02  0 
 4.760147e-03  -1.773382e-02  0 
 5.637386e-03  -1.735845e-02  0 
 4.437395e-03  -1.499283e-02  0 
 3.834741e-03  -1.645300e-02  0 
 3.683506e-03  -1.544831e-02  0 
 4.883178e-03  -1.502545e-02  0 
 4.354174e-03  -1.711147e-02  0 
 4.035206e-03  -1.530412e-02  0 
 5.142832e-03  -1.808377e-02  0 
 4.015464e-03  -1.698803e-02  0 
 3.715821e-03  -1.491978e-02  0 
 4.140447e-03  -1.663415e-02  0 
 4.060819e-03  -1.479392e-02  0 
 4.197847e-03  -1.599974e-02  0 
 4.448499e-03  -1.748247e-02  0 
 5.646323e-03  -1.502034e-02  0 
 5.677177e-03  -1.633105e-02  0 
 5.290701e-03  -1.668034e-02  0 
 5.699632e-03  -1.685650e-02  0 
 5.557770e-03  -1.834167e-02  0 
 5.914559e-03  -1.857608e-02  0 
 5.800806e-03  -1.571877e-02  0 
 5.778873e-03  -1.807013e-02  0 
 5.243314e-03  -1.504514e-02  0 
VECTORS displacement_ITER14 FLOAT
 3.419554e-03  -1.438333e-02  0 
 6.178212e-03  -1.449420e-02  0 
 3.518640e-03  -1.697966e-02  0 
 6.240275e-03  -1.912174e-02  0 
 3.857801e-03  -1.433939e-02  0 
 4.309991e-03  -1.432663e-02  0 
 4.752684e-03  -1.431063e-02  0 
 5.207270e-03  -1.431947e-02  0 
 5.676425e-03  -1.437892e-02  0 
 3.457077e-03  -1.482995e-02  0 
 3.479967e-03  -1.526177e-02  0 
 3.492897e-03  -1.568794e-02  0 
 3.500408e-03  -1.611435e-02  0 
 3.505889e-03  -1.654394e-02  0 
 6.184276e-03  -1.535721e-02  0 
 6.207343e-03  -1.614991e-02  0 
 6.223742e-03  -1.690707e-02  0 
 6.233072e-03  -1.764845e-02  0 
 6.238246e-03  -1.838690e-02  0 
 4.264790e-03  -1.754415e-02  0 
 4.712744e-03  -1.790592e-02  0 
 5.076357e-03  -1.823505e-02  0 
 5.427053e-03  -1.852652e-02  0 
 5.819789e-03  -1.879146e-02  0 
 4.734264e-03  -1.633263e-02  0 
 5.302620e-03  -1.782189e-02  0 
 4.536900e-03  -1.566356e-02  0 
 4.785846e-03  -1.747101e-02  0 
 3.939938e-03  -1.618253e-02  0 
 5.210244e-03  -1.576555e-02  0 
 4.438204e-03  -1.677038e-02  0 
 4.983843e-03  -1.711412e-02  0 
 4.758714e-03  -1.772874e-02  0 
 5.632279e-03  -1.735576e-02  0 
 4.434348e-03  -1.499046e-02  0 
 3.832664e-03  -1.644675e-02  0 
 3.683786e-03  -1.544564e-02  0 
 4.875310e-03  -1.502780e-02  0 
 4.352046e-03  -1.710502e-02  0 
 4.034313e-03  -1.530115e-02  0 
 5.139942e-03  -1.807935e-02  0 
 4.011376e-03  -1.698036e-02  0 
 3.715961e-03  -1.491770e-02  0 
 4.138545e-03  -1.662855e-02  0 
 4.060815e-03  -1.478995e-02  0 
 4.195612e-03  -1.599576e-02  0 
 4.446632e-03  -1.747669e-02  0 
 5.642659e-03  -1.502672e-02  0 
 5.673980e-03  -1.633366e-02  0 
 5.286958e-03  -1.668054e-02  0 
 5.695336e-03  -1.685536e-02  0 
 5.552593e-03  -1.833821e-02  0 
 5.909807e-03  -1.857620e-02  0 
 5.797831e-03  -1.572569e-02  0 
 5.772596e-03  -1.806648e-02  0 
 5.236124e-03  -1.504966e-02  0 
VECTORS displacement_ITER15 FLOAT
 3.423176e-03  -1.439029e-02  0 
 6.173574e-03  -1.449579e-02  0 
 3.510067e-03  -1.697125e-02  0 
 6.240784e-03  -1.912337e-02  0 
 3.852119e-03  -1.434119e-02  0 
 4.303446e-03  -1.431003e-02  0 
 4.758907e-03  -1.430128e-02  0 
 5.210400e-03  -1.430579e-02  0 
 5.675405e-03  -1.437136e-02  0 
 3.457397e-03  -1.483207e-02  0 
 3.471772e-03  -1.526243e-02  0 
 3.482870e-03  -1.569033e-02  0 
 3.493965e-03  -1.611693e-02  0 
 3.502782e-03  -1.654209e-02  0 
 6.186628e-03  -1.535766e-02  0 
 6.212919e-03  -1.614597e-02  0 
 6.228678e-03  -1.690372e-02  0 
 6.236164e-03  -1.764973e-02  0 
 6.242147e-03  -1.838982e-02  0 
 4.258994e-03  -1.754241e-02  0 
 4.707987e-03  -1.790821e-02  0 
 5.073350e-03  -1.823966e-02  0 
 5.426703e-03  -1.853150e-02  0 
 5.822043e-03  -1.879583e-02  0 
 4.732338e-03  -1.632998e-02  0 