# vtk DataFile Version 3.1
this is an vtk file created by FEMAC
ASCII
DATASET UNSTRUCTURED_GRID
POINTS 55 FLOAT
1.000000 2.000000 0.000000
1.000000 3.000000 0.000000
2.000000 2.000000 0.000000
2.000000 3.000000 0.000000
1.000000 2.166667 0.000000
1.000000 2.333333 0.000000
1.000000 2.500000 0.000000
1.000000 2.666667 0.000000
1.000000 2.833333 0.000000
1.166667 2.000000 0.000000
1.333333 2.000000 0.000000
1.500000 2.000000 0.000000
1.666667 2.000000 0.000000
1.833333 2.000000 0.000000
1.166667 3.000000 0.000000
1.333333 3.000000 0.000000
1.500000 3.000000 0.000000
1.666667 3.000000 0.000000
1.833333 3.000000 0.000000
2.000000 2.166667 0.000000
2.000000 2.333333 0.000000
2.000000 2.500000 0.000000
2.000000 2.666667 0.000000
2.000000 2.833333 0.000000
1.817391 2.274819 0.000000
1.257371 2.680668 0.000000
1.817200 2.665571 0.000000
1.124203 2.752786 0.000000
1.475832 2.255087 0.000000
1.527966 2.717889 0.000000
1.863293 2.484746 0.000000
1.275130 2.506793 0.000000
1.429194 2.430620 0.000000
1.680028 2.425155 0.000000
1.391185 2.618068 0.000000
1.702482 2.810443 0.000000
1.637651 2.146112 0.000000
1.146774 2.415610 0.000000
1.299340 2.170763 0.000000
1.683214 2.610925 0.000000
1.124226 2.590610 0.000000
1.227131 2.855646 0.000000
1.878280 2.815447 0.000000
1.138237 2.251401 0.000000
1.523035 2.881947 0.000000
1.380104 2.789286 0.000000
1.528443 2.521316 0.000000
1.548933 2.378396 0.000000
1.103600 2.888353 0.000000
1.449566 2.111827 0.000000
1.299973 2.338698 0.000000
1.637432 2.297719 0.000000
1.825840 2.097933 0.000000
1.927903 2.912195 0.000000
1.156263 2.098138 0.000000
CELLS 84 336 
3 24 19 20
3 27  8  7
3 33 24 30
3 34 25 31
3 37  6  5
3 26 39 30
3 7 40 27
3 40 25 27
3 41 15 14
3 23 42 22
3 4 43  5
3 43 37  5
3 33 30 39
3 31 32 34
3 6 40  7
3 37 40  6
3 25 40 31
3 31 40 37
3 35 39 26
3 35 29 39
3 25 41 27
3 26 42 35
3 20 21 30
3 24 20 30
3 29 45 34
3 29 46 39
3 46 29 34
3 28 47 32
3 8 48  1
3 48 14  1
3 45 25 34
3 41 25 45
3 44 45 29
3 14 48 41
3 48 27 41
3 27 48  8
3 16 44 17
3 35 44 29
3 44 35 17
3 44 16 15
3 41 45 15
3 44 15 45
3 21 22 30
3 22 26 30
3 26 22 42
3 34 32 46
3 47 46 32
3 33 39 46
3 46 47 33
3 11 49 10
3 50 38 28
3 32 50 28
3 33 51 24
3 36 51 28
3 51 36 24
3 51 47 28
3 33 47 51
3 28 49 36
3 49 28 38
3 36 11 12
3 49 11 36
3 50 32 31
3 37 50 31
3 50 37 43
3 43 38 50
3 49 38 10
3 18 35 42
3 35 18 17
3 52 13  2
3 19 52  2
3 53 18 42
3 53 23  3
3 23 53 42
3 18 53  3
3 12 13 52
3 52 24 36
3 24 52 19
3 36 12 52
3 54  4  0
3 9 54  0
3 10 54  9
3 43 54 38
3 54 43  4
3 10 38 54
CELL_TYPES 84
5 5 5 5 5 5 5 5 5 5 5 5 5 5 5 5 5 5 5 5 5 5 5 5 5 5 5 5 5 5 5 5 5 5 5 5 5 5 5 5 5 5 5 5 5 5 5 5 5 5 5 5 5 5 5 5 5 5 5 5 5 5 5 5 5 5 5 5 5 5 5 5 5 5 5 5 5 5 5 5 5 5 5 5 
POINT_DATA 55
VECTORS displacement_ITER1 FLOAT
 -3.741956e-05  -5.935916e-04  0 
 -9.964289e-04  -1.302828e-04  0 
 -1.998060e-03  -3.533390e-03  0 
 3.400751e-03  -6.577428e-03  0 
 1.222110e-04  -9.286135e-04  0 
 5.894376e-04  -9.971695e-04  0 
 -4.786750e-05  7.188433e-05  0 
 -6.287807e-04  8.948788e-04  0 
 -6.188477e-04  1.066127e-03  0 
 -8.337774e-04  -2.992873e-03  0 
 -4.249249e-04  -3.075185e-03  0 
 1.084347e-03  2.282806e-05  0 
 1.207908e-03  -8.686615e-04  0 
 -1.101430e-03  -3.684569e-04  0 
 3.050147e-04  -3.588570e-03  0 
 -6.265246e-04  -3.153927e-03  0 
 -1.019854e-03  -2.099255e-03  0 
 -6.181191e-04  -1.196988e-03  0 
 2.704494e-04  2.322499e-04  0 
 -1.243345e-03  -4.393639e-03  0 
 6.524967e-04  -4.079980e-03  0 
 -2.588750e-04  -3.675026e-03  0 
 -3.953410e-05  -3.874281e-03  0 
 1.267995e-03  -3.741978e-03  0 
 -8.003034e-05  -1.717523e-03  0 
 -1.869106e-04  -1.162617e-03  0 
 2.941372e-04  -2.633919e-03  0 
 -6.322913e-04  -5.236544e-04  0 
 -7.863203e-04  -1.730576e-03  0 
 6.997692e-04  -1.866396e-03  0 
 -5.240212e-06  -3.317075e-03  0 
 -3.321540e-04  -8.314742e-04  0 
 -4.532795e-04  -1.412880e-03  0 
 -4.219048e-04  -2.221727e-03  0 
 8.628996e-05  -1.391968e-03  0 
 8.982179e-04  -1.490836e-03  0 
 -3.649342e-04  -8.857383e-04  0 
 -1.455376e-04  -6.817606e-04  0 
 -4.080268e-04  -2.130920e-03  0 
 3.523461e-04  -2.321550e-03  0 
 -4.875709e-04  -1.523616e-04  0 
 -6.518294e-05  -2.478682e-03  0 
 6.959983e-04  -2.150183e-03  0 
 1.595878e-04  -1.568875e-03  0 
 2.444313e-04  -2.084374e-03  0 
 3.920582e-04  -2.168490e-03  0 
 -1.214541e-04  -1.753415e-03  0 
 -6.041862e-04  -1.813531e-03  0 
 -4.875208e-04  -9.103680e-04  0 
 -6.471273e-04  -1.845510e-03  0 
 -4.238188e-04  -1.319559e-03  0 
 -5.097897e-04  -1.663183e-03  0 
 -9.265974e-04  -7.866610e-04  0 
 8.792454e-04  -2.587177e-03  0 
 -1.037309e-04  -2.289921e-03  0 
VECTORS displacement_ITER2 FLOAT
 1.938993e-04  -1.389348e-03  0 
 -9.168642e-04  -1.843240e-03  0 
 -1.401016e-03  -2.050090e-03  0 
 5.883294e-04  -1.228825e-03  0 
 -2.891681e-04  7.077746e-05  0 
 -3.023430e-04  7.018601e-04  0 
 -1.116472e-05  8.516717e-04  0 
 5.903015e-04  8.249402e-04  0 
 2.913363e-04  1.514536e-04  0 
 -6.515879e-04  -1.012019e-03  0 
 -9.195268e-04  -5.454659e-04  0 
 -1.023858e-03  -1.747993e-03  0 
 -6.403545e-04  -3.481673e-03  0 
 -3.805364e-04  -3.031119e-03  0 
 5.285238e-04  -2.030020e-03  0 
 1.221715e-03  -1.599091e-03  0 
 1.455487e-03  -2.985606e-03  0 
 5.858681e-04  -3.965727e-03  0 
 6.909129e-04  -3.967269e-03  0 
 -1.271444e-03  -5.059665e-03  0 
 -4.750165e-04  -4.700262e-03  0 
 -5.434780e-04  -4.432183e-03  0 
 -6.506791e-05  -5.081724e-03  0 
 2.410112e-03  -4.767518e-03  0 
 -6.303165e-04  -3.614305e-03  0 
 4.265724e-04  -1.148520e-03  0 
 5.566891e-04  -3.540490e-03  0 
 6.431034e-04  -1.891687e-04  0 
 -6.079332e-04  -2.051367e-03  0 
 6.958351e-04  -2.591415e-03  0 
 -3.948676e-04  -4.126921e-03  0 
 4.361122e-05  -1.103224e-03  0 
 -1.649566e-04  -1.911047e-03  0 
 -3.649802e-04  -3.211200e-03  0 
 3.472294e-04  -1.810027e-03  0 
 1.284570e-03  -3.445578e-03  0 
 -8.285824e-04  -2.926098e-03  0 
 -2.236713e-04  -2.323404e-04  0 
 -8.658202e-04  -1.013690e-03  0 
 3.804881e-04  -3.087798e-03  0 
 2.581070e-04  -1.982894e-04  0 
 9.215954e-04  -1.077288e-03  0 
 1.855428e-03  -3.394826e-03  0 
 -5.886904e-04  -2.345443e-04  0 
 9.070848e-04  -3.201663e-03  0 
 6.630545e-04  -2.036554e-03  0 
 9.047351e-05  -2.414405e-03  0 
 -3.502445e-04  -2.546880e-03  0 
 4.715361e-04  -7.144170e-04  0 
 -8.125543e-04  -1.603715e-03  0 
 -4.222570e-04  -1.140684e-03  0 
 -5.498743e-04  -2.971292e-03  0 
 -1.474499e-03  -3.344858e-03  0 
 1.896824e-03  -3.525990e-03  0 
 -8.748387e-04  -6.502576e-04  0 
VECTORS displacement_ITER3 FLOAT
 -5.374933e-04  -8.497562e-04  0 
 2.055017e-04  -5.118383e-04  0 
 -1.968273e-03  -2.265657e-03  0 
 2.095781e-03  -4.212841e-03  0 
 1.565291e-04  -9.958196e-04  0 
 -2.439292e-04  -1.007533e-03  0 
 -9.858528e-05  -1.048016e-03  0 
 -6.770845e-05  -1.649425e-03  0 
 -7.112832e-05  -1.209658e-03  0 
 -3.736983e-04  -1.583374e-03  0 
 -3.151694e-04  -1.979743e-03  0 
 -6.296646e-04  -2.322663e-03  0 
 -6.429691e-04  -1.969908e-03  0 
 -8.626775e-04  -2.168725e-03  0 
 -3.551186e-04  -1.884645e-03  0 
 -4.432320e-04  -2.520821e-03  0 
 -2.178507e-04  -2.670644e-03  0 
 -2.217469e-04  -2.598399e-03  0 
 2.394672e-04  -2.154750e-03  0 
 -1.044513e-03  -2.984029e-03  0 
 -6.301684e-04  -2.603914e-03  0 
 4.250964e-05  -2.527325e-03  0 
 1.513055e-04  -2.915574e-03  0 
 2.411499e-04  -2.942364e-03  0 
 -5.751962e-04  -2.298077e-03  0 
 -1.018005e-04  -1.884881e-03  0 
 9.927936e-05  -2.491010e-03  0 
 -2.390015e-04  -1.782491e-03  0 
 -4.440768e-04  -1.969436e-03  0 
 4.454923e-05  -2.235948e-03  0 
 -1.176852e-04  -2.403454e-03  0 
 -8.391192e-05  -1.830250e-03  0 
 -1.651558e-04  -1.955978e-03  0 
 -2.367299e-04  -2.215513e-03  0 
 -6.156956e-05  -2.009435e-03  0 
 2.267892e-04  -2.348160e-03  0 
 -7.872447e-04  -2.073530e-03  0 
 -1.804246e-04  -1.490008e-03  0 
 -3.389099e-04  -1.820193e-03  0 
 4.844931e-07  -2.315587e-03  0 
 4.657568e-06  -1.636784e-03  0 
 -3.078855e-04  -2.087586e-03  0 
 2.708631e-04  -2.517168e-03  0 
 -1.355136e-04  -1.330495e-03  0 
 -7.165044e-05  -2.522551e-03  0 
 -1.139361e-04  -2.211981e-03  0 
 -1.124643e-04  -2.106602e-03  0 
 -2.838588e-04  -2.077301e-03  0 
 -2.549937e-04  -1.644274e-03  0 
 -4.906157e-04  -2.058364e-03  0 
 -2.152618e-04  -1.724596e-03  0 
 -4.579800e-04  -2.139194e-03  0 
 -1.064164e-03  -2.054951e-03  0 
 5.135733e-04  -2.551425e-03  0 
 -1.854281e-04  -1.660058e-03  0 
VECTORS displacement_ITER4 FLOAT
 -2.591352e-04  -1.119321e-03  0 
 -2.000042e-04  -1.166118e-03  0 
 -1.392617e-03  -2.836962e-03  0 
 7.111970e-04  -3.359170e-03  0 
 -1.410041e-04  -6.094094e-04  0 
 -2.066957e-04  -4.175412e-04  0 
 -2.062066e-06  -4.243452e-04  0 
 5.321120e-05  -4.085554e-04  0 
 2.699499e-05  -6.440361e-04  0 
 -5.318224e-04  -1.460025e-03  0 
 -8.855874e-04  -1.968643e-03  0 
 -8.991357e-04  -2.309334e-03  0 
 -9.869127e-04  -2.156173e-03  0 
 -7.903187e-04  -2.728945e-03  0 
 -5.912846e-05  -1.620093e-03  0 
 3.066911e-04  -1.977026e-03  0 
 4.203604e-04  -2.440668e-03  0 
 4.029138e-04  -2.870916e-03  0 
 6.089809e-04  -3.034913e-03  0 
 -5.905138e-04  -3.623624e-03  0 
 -8.596227e-04  -3.753606e-03  0 
 -2.191876e-04  -3.755955e-03  0 
 3.898931e-04  -3.563543e-03  0 
 5.274277e-04  -3.572460e-03  0 
 -7.000676e-04  -3.244333e-03  0 
 9.988187e-05  -1.503472e-03  0 
 2.607639e-04  -3.134304e-03  0 
 1.204681e-04  -1.042374e-03  0 
 -6.310187e-04  -2.164037e-03  0 
 2.135142e-04  -2.389500e-03  0 
 -2.255603e-04  -3.221160e-03  0 
 -1.069044e-04  -1.501410e-03  0 
 -2.384482e-04  -1.991935e-03  0 
 -2.888595e-04  -2.777871e-03  0 
 5.233546e-05  -1.936451e-03  0 
 4.243336e-04  -2.870041e-03  0 
 -9.598436e-04  -2.479709e-03  0 
 -1.671274e-04  -1.037437e-03  0 
 -5.836354e-04  -1.698426e-03  0 
 9.197194e-05  -2.759994e-03  0 
 3.519202e-06  -9.368268e-04  0 
 1.996822e-04  -1.492084e-03  0 
 4.777595e-04  -3.275900e-03  0 
 -3.214508e-04  -1.014395e-03  0 
 3.505490e-04  -2.491330e-03  0 
 2.199185e-04  -1.991071e-03  0 
 -7.823476e-05  -2.329480e-03  0 
 -3.879874e-04  -2.375747e-03  0 
 7.356193e-05  -1.203165e-03  0 
 -8.198734e-04  -2.206946e-03  0 
 -3.356629e-04  -1.582035e-03  0 
 -5.925677e-04  -2.609646e-03  0 
 -9.070405e-04  -2.754805e-03  0 
 5.914248e-04  -3.306405e-03  0 
 -4.990510e-04  -1.287922e-03  0 
VECTORS displacement_ITER5 FLOAT
 -2.799988e-04  -1.111907e-03  0 
 3.999262e-06  -1.260623e-03  0 
 -1.225641e-03  -3.116029e-03  0 
 6.073140e-04  -3.549724e-03  0 
 -1.525268e-04  -6.285240e-04  0 
 -1.582934e-04  -4.739975e-04  0 
 -6.403950e-05  -4.379527e-04  0 
 -2.525696e-05  -3.311935e-04  0 
 1.364071e-05  -5.881738e-04  0 
 -4.663118e-04  -1.494650e-03  0 
 -7.167265e-04  -1.929603e-03  0 
 -6.445824e-04  -2.096574e-03  0 
 -8.793600e-04  -2.288846e-03  0 
 -8.438066e-04  -2.754561e-03  0 
 2.475071e-04  -2.000974e-03  0 
 3.101969e-04  -2.184350e-03  0 
 2.301397e-04  -2.351094e-03  0 
 3.034112e-04  -2.683122e-03  0 
 4.810264e-04  -2.949054e-03  0 
 -8.648321e-04  -3.442897e-03  0 
 -6.404974e-04  -3.699864e-03  0 
 -2.844262e-04  -3.773942e-03  0 
 1.484203e-05  -3.634065e-03  0 
 2.944352e-04  -3.603526e-03  0 
 -6.815999e-04  -3.083423e-03  0 
 7.042116e-05  -1.609346e-03  0 
 4.733693e-05  -3.192460e-03  0 
 7.853973e-05  -1.112799e-03  0 
 -6.168844e-04  -2.203841e-03  0 
 1.989247e-04  -2.476129e-03  0 
 -2.663441e-04  -3.359056e-03  0 
 -1.663485e-04  -1.542828e-03  0 
 -3.060489e-04  -2.060692e-03  0 
 -3.679431e-04  -2.815679e-03  0 
 1.763929e-05  -2.026440e-03  0 
 2.773486e-04  -2.816689e-03  0 
 -8.020300e-04  -2.433927e-03  0 
 -1.964687e-04  -1.062643e-03  0 
 -5.585107e-04  -1.752891e-03  0 
 3.704870e-06  -2.879371e-03  0 
 -8.081052e-05  -9.531945e-04  0 
 2.794067e-04  -1.782226e-03  0 
 2.570425e-04  -3.260952e-03  0 
 -3.064641e-04  -1.097258e-03  0 
 3.034630e-04  -2.452774e-03  0 
 2.698572e-04  -2.144836e-03  0 
 -1.550489e-04  -2.413157e-03  0 
 -4.411087e-04  -2.423017e-03  0 
 1.619654e-04  -1.348148e-03  0 
 -7.152364e-04  -2.156261e-03  0 
 -3.678626e-04  -1.644642e-03  0 
 -5.971631e-04  -2.604348e-03  0 
 -8.822406e-04  -2.828454e-03  0 
 3.963761e-04  -3.326891e-03  0 
 -4.751583e-04  -1.364862e-03  0 
VECTORS displacement_ITER6 FLOAT
 -3.815144e-04  -1.136066e-03  0 
 7.899165e-05  -1.208935e-03  0 
 -9.823101e-04  -3.271518e-03  0 
 5.442581e-04  -3.614226e-03  0 
 -2.157537e-04  -6.973464e-04  0 
 -1.095594e-04  -6.118411e-04  0 
 -9.875937e-06  -5.713800e-04  0 
 6.348368e-05  -6.372930e-04  0 
 4.943168e-05  -7.157995e-04  0 
 -5.522898e-04  -1.606723e-03  0 
 -5.658004e-04  -1.897142e-03  0 
 -6.151393e-04  -2.143455e-03  0 
 -7.626002e-04  -2.506246e-03  0 
 -8.569130e-04  -2.787366e-03  0 
 1.971901e-04  -1.937799e-03  0 
 1.370466e-04  -2.238262e-03  0 
 9.544240e-05  -2.424528e-03  0 
 2.080948e-04  -2.772398e-03  0 
 3.673946e-04  -3.114777e-03  0 
 -1.044461e-03  -3.597179e-03  0 
 -5.365818e-04  -3.799906e-03  0 
 -2.428416e-04  -3.845875e-03  0 
 -4.596050e-05  -3.779266e-03  0 
 2.749885e-04  -3.718109e-03  0 
 -6.520794e-04  -3.105151e-03  0 
 8.060476e-05  -1.726638e-03  0 
 9.686995e-06  -3.287802e-03  0 
 7.080662e-05  -1.273452e-03  0 
 -5.592138e-04  -2.317718e-03  0 
 1.583556e-04  -2.561445e-03  0 
 -2.356053e-04  -3.467376e-03  0 
 -1.110226e-04  -1.710963e-03  0 
 -2.740267e-04  -2.207263e-03  0 
 -3.577160e-04  -2.897631e-03  0 
 1.683527e-05  -2.136293e-03  0 
 2.082126e-04  -2.911073e-03  0 
 -7.069402e-04  -2.567051e-03  0 
 -1.513857e-04  -1.222638e-03  0 
 -5.537726e-04  -1.879422e-03  0 
 -1.567979e-05  -2.982402e-03  0 
 1.071246e-05  -1.150537e-03  0 
 2.069397e-04  -1.884512e-03  0 
 2.265803e-04  -3.352305e-03  0 
 -2.948186e-04  -1.260895e-03  0 
 2.106395e-04  -2.510508e-03  0 
 2.213433e-04  -2.220190e-03  0 
 -1.571397e-04  -2.521299e-03  0 
 -4.046290e-04  -2.536273e-03  0 
 1.526882e-04  -1.416346e-03  0 
 -6.322693e-04  -2.177077e-03  0 
 -3.360420e-04  -1.806775e-03  0 
 -5.541594e-04  -2.708181e-03  0 
 -8.940504e-04  -2.985478e-03  0 
 3.525497e-04  -3.428919e-03  0 
 -5.223317e-04  -1.518763e-03  0 
VECTORS displacement_ITER7 FLOAT
 -3.860410e-04  -1.194802e-03  0 
 8.243295e-05  -1.205083e-03  0 
 -9.230216e-04  -3.456029e-03  0 
 5.024336e-04  -3.466267e-03  0 
 -2.647913e-04  -7.353606e-04  0 
 -1.538951e-04  -6.673984e-04  0 
 -3.110152e-05  -6.499072e-04  0 
 9.506585e-05  -7.373722e-04  0 
 6.242926e-05  -7.803199e-04  0 
 -5.762741e-04  -1.609639e-03  0 
 -5.351608e-04  -1.811167e-03  0 
 -6.321766e-04  -2.191282e-03  0 
 -5.783222e-04  -2.531350e-03  0 
 -7.725232e-04  -2.817153e-03  0 
 7.408898e-05  -1.806905e-03  0 
 5.429251e-05  -2.220219e-03  0 
 9.239746e-05  -2.519785e-03  0 
 1.883679e-04  -2.878466e-03  0 
 3.409388e-04  -3.160505e-03  0 
 -9.441990e-04  -3.798303e-03  0 
 -6.596786e-04  -3.856993e-03  0 
 -3.635819e-04  -3.883210e-03  0 
 -1.769752e-05  -3.833890e-03  0 
 4.152170e-04  -3.733256e-03  0 
 -6.410995e-04  -3.222122e-03  0 
 6.960442e-05  -1.772744e-03  0 
 2.896929e-05  -3.274207e-03  0 
 7.326914e-05  -1.328738e-03  0 
 -5.314944e-04  -2.372279e-03  0 
 1.290663e-04  -2.563627e-03  0 
 -3.273494e-04  -3.462728e-03  0 
 -1.017536e-04  -1.779584e-03  0 
 -2.579299e-04  -2.262332e-03  0 
 -3.680656e-04  -2.954889e-03  0 
 9.503782e-06  -2.171489e-03  0 
 2.381519e-04  -2.948581e-03  0 
 -6.650791e-04  -2.676202e-03  0 
 -1.629259e-04  -1.290513e-03  0 
 -5.639968e-04  -1.893810e-03  0 
 -3.427654e-05  -2.958694e-03  0 
 2.141502e-05  -1.241270e-03  0 
 1.493454e-04  -1.857917e-03  0 
 3.174366e-04  -3.341895e-03  0 
 -3.247295e-04  -1.298774e-03  0 
 1.773623e-04  -2.570082e-03  0 
 1.681466e-04  -2.225526e-03  0 
 -1.520686e-04  -2.550613e-03  0 
 -3.879689e-04  -2.598457e-03  0 
 1.316710e-04  -1.428839e-03  0 
 -6.000884e-04  -2.182580e-03  0 
 -3.304900e-04  -1.859907e-03  0 
 -5.329401e-04  -2.793722e-03  0 
 -8.028844e-04  -3.022054e-03  0 
 4.193466e-04  -3.423988e-03  0 
 -5.607409e-04  -1.534209e-03  0 
VECTORS displacement_ITER8 FLOAT
 -3.865810e-04  -1.124813e-03  0 
 6.214317e-05  -1.231130e-03  0 
 -9.946421e-04  -3.489568e-03  0 
 5.534957e-04  -3.514701e-03  0 
 -2.123041e-04  -8.015209e-04  0 
 -1.732080e-04  -7.405973e-04  0 
 -7.711453e-05  -6.967037e-04  0 
 5.144706e-05  -7.103373e-04  0 
 6.677328e-05  -8.416130e-04  0 
 -4.913278e-04  -1.592225e-03  0 
 -4.897189e-04  -1.869195e-03  0 
 -5.128756e-04  -2.175247e-03  0 
 -4.850885e-04  -2.490591e-03  0 
 -7.113308e-04  -2.774867e-03  0 
 2.473127e-05  -1.853811e-03  0 
 4.958334e-05  -2.191050e-03  0 
 1.012343e-04  -2.507178e-03  0 
 1.468962e-04  -2.816984e-03  0 
 2.670262e-04  -3.027053e-03  0 
 -9.450494e-04  -3.763920e-03  0 
 -7.014433e-04  -3.763940e-03  0 
 -3.479366e-04  -3.811592e-03  0 
 1.685209e-05  -3.836015e-03  0 
 2.897402e-04  -3.731384e-03  0 
 -6.384680e-04  -3.157122e-03  0 
 4.909555e-05  -1.796389e-03  0 
 2.223007e-05  -3.256717e-03  0 
 7.519254e-05  -1.354999e-03  0 
 -5.152846e-04  -2.359989e-03  0 
 1.029674e-04  -2.555967e-03  0 
 -3.376891e-04  -3.384323e-03  0 
 -1.373985e-04  -1.788671e-03  0 
 -2.728858e-04  -2.249763e-03  0 
 -3.733272e-04  -2.910254e-03  0 
 -1.506824e-05  -2.179567e-03  0 
 2.151917e-04  -2.931010e-03  0 
 -6.312459e-04  -2.630592e-03  0 
 -1.925941e-04  -1.318809e-03  0 
 -5.100012e-04  -1.903760e-03  0 
 -5.522872e-05  -2.928652e-03  0 
 -3.062627e-05  -1.257252e-03  0 
 1.447806e-04  -1.856240e-03  0 
 2.524010e-04  -3.324398e-03  0 
 -3.007087e-04  -1.325022e-03  0 
 1.649392e-04  -2.563724e-03  0 
 1.483076e-04  -2.223277e-03  0 
 -1.689964e-04  -2.534684e-03  0 
 -3.936587e-04  -2.569733e-03  0 
 1.123187e-04  -1.469312e-03  0 
 -5.552225e-04  -2.206681e-03  0 
 -3.303515e-04  -1.860407e-03  0 
 -5.278905e-04  -2.750031e-03  0 
 -7.683634e-04  -2.945541e-03  0 
 3.456702e-04  -3.353170e-03  0 
 -4.774992e-04  -1.547625e-03  0 
VECTORS displacement_ITER9 FLOAT
 -4.140494e-04  -1.087610e-03  0 
 7.554676e-05  -1.260879e-03  0 
 -9.726735e-04  -3.410793e-03  0 
 4.737675e-04  -3.500712e-03  0 
 -2.276170e-04  -8.658367e-04  0 
 -1.498767e-04  -7.332630e-04  0 
 -4.192249e-05  -6.910371e-04  0 
 3.239121e-05  -7.063843e-04  0 
 9.582745e-05  -8.900223e-04  0 
 -4.570835e-04  -1.563515e-03  0 
 -5.033129e-04  -1.925265e-03  0 
 -4.916416e-04  -2.184957e-03  0 
 -5.659986e-04  -2.526814e-03  0 
 -6.623961e-04  -2.784750e-03  0 
 6.645558e-05  -1.937951e-03  0 
 9.185366e-05  -2.195284e-03  0 
 1.135743e-04  -2.510579e-03  0 
 1.139041e-04  -2.821493e-03  0 
 2.227841e-04  -3.079968e-03  0 
 -9.848834e-04  -3.783069e-03  0 
 -6.840822e-04  -3.842484e-03  0 
 -3.370620e-04  -3.869227e-03  0 
 -1.946265e-05  -3.906258e-03  0 
 2.409929e-04  -3.850845e-03  0 
 -6.527544e-04  -3.188863e-03  0 
 6.604285e-05  -1.822257e-03  0 
 -8.193802e-07  -3.324462e-03  0 
 9.586351e-05  -1.384211e-03  0 
 -5.266991e-04  -2.384451e-03  0 
 1.061523e-04  -2.606460e-03  0 
 -3.268624e-04  -3.454738e-03  0 
 -1.390733e-04  -1.804386e-03  0 
 -2.863236e-04  -2.283047e-03  0 
 -3.787835e-04  -2.951443e-03  0 
 -9.669968e-06  -2.215902e-03  0 
 1.919161e-04  -2.978338e-03  0 
 -6.488517e-04  -2.636715e-03  0 
 -1.784607e-04  -1.331996e-03  0 
 -5.030274e-04  -1.923956e-03  0 
 -6.135523e-05  -2.995339e-03  0 
 -2.574110e-05  -1.248748e-03  0 
 1.797855e-04  -1.890878e-03  0 
 2.126864e-04  -3.390741e-03  0 
 -3.131972e-04  -1.358168e-03  0 
 1.695074e-04  -2.595758e-03  0 
 1.665729e-04  -2.258770e-03  0 
 -1.767764e-04  -2.581524e-03  0 
 -4.062446e-04  -2.600359e-03  0 
 1.324671e-04  -1.508783e-03  0 
 -5.664663e-04  -2.243808e-03  0 
 -3.405079e-04  -1.891417e-03  0 
 -5.414923e-04  -2.773565e-03  0 
 -7.993772e-04  -2.990412e-03  0 
 3.082377e-04  -3.413400e-03  0 
 -4.550430e-04  -1.548245e-03  0 
VECTORS displacement_ITER10 FLOAT
 -4.109040e-04  -1.099840e-03  0 
 1.167406e-04  -1.209680e-03  0 
 -9.884555e-04  -3.432367e-03  0 
 4.583689e-04  -3.524206e-03  0 
 -2.642437e-04  -9.128647e-04  0 
 -1.278121e-04  -7.929571e-04  0 
 -1.227658e-05  -7.830109e-04  0 
 2.434825e-05  -8.392084e-04  0 
 9.371390e-05  -9.134374e-04  0 
 -4.183960e-04  -1.516786e-03  0 
 -4.606384e-04  -1.886198e-03  0 
 -4.834329e-04  -2.191509e-03  0 
 -5.642170e-04  -2.484790e-03  0 
 -6.419913e-04  -2.810103e-03  0 
 5.670143e-05  -1.896758e-03  0 
 1.177670e-05  -2.228418e-03  0 
 2.215628e-05  -2.504131e-03  0 
 5.166206e-05  -2.778946e-03  0 
 1.961606e-04  -3.072902e-03  0 
 -9.566405e-04  -3.771030e-03  0 
 -6.787793e-04  -3.833058e-03  0 
 -3.800085e-04  -3.832038e-03  0 
 -6.101044e-05  -3.812998e-03  0 
 2.786450e-04  -3.794295e-03  0 
 -6.341155e-04  -3.185362e-03  0 
 4.989763e-05  -1.852253e-03  0 
 -2.749839e-05  -3.265022e-03  0 
 5.774937e-05  -1.447820e-03  0 
 -4.999898e-04  -2.378110e-03  0 
 8.535016e-05  -2.589295e-03  0 
 -3.405588e-04  -3.425011e-03  0 
 -1.230027e-04  -1.838067e-03  0 
 -2.718434e-04  -2.294315e-03  0 
 -3.702937e-04  -2.936994e-03  0 
 -1.488741e-05  -2.223562e-03  0 
 1.555554e-04  -2.925566e-03  0 
 -6.278136e-04  -2.622027e-03  0 
 -1.512449e-04  -1.388961e-03  0 
 -4.772034e-04  -1.925872e-03  0 
 -7.304525e-05  -2.961132e-03  0 
 -1.236629e-05  -1.316475e-03  0 
 1.281101e-04  -1.934410e-03  0 
 2.020445e-04  -3.332028e-03  0 
 -3.093515e-04  -1.406769e-03  0 
 1.169541e-04  -2.577720e-03  0 
 1.321330e-04  -2.270539e-03  0 
 -1.732531e-04  -2.574603e-03  0 
 -3.886495e-04  -2.595315e-03  0 
 1.192449e-04  -1.519639e-03  0 
 -5.317794e-04  -2.226923e-03  0 
 -3.220054e-04  -1.922170e-03  0 
 -5.202466e-04  -2.763551e-03  0 
 -7.703596e-04  -2.991301e-03  0 
 3.019058e-04  -3.401447e-03  0 
 -4.453888e-04  -1.536349e-03  0 
VECTORS displacement_ITER11 FLOAT
 -4.031999e-04  -1.087363e-03  0 
 9.894815e-05  -1.265034e-03  0 
 -9.811438e-04  -3.383582e-03  0 
 3.931232e-04  -3.522875e-03  0 
 -2.544726e-04  -8.819104e-04  0 
 -1.200271e-04  -8.026761e-04  0 
 -3.009589e-05  -7.673386e-04  0 
 5.276630e-05  -8.051214e-04  0 
 1.120281e-04  -9.165026e-04  0 
 -4.387169e-04  -1.507098e-03  0 
 -4.642523e-04  -1.876453e-03  0 
 -5.114556e-04  -2.199992e-03  0 
 -5.682200e-04  -2.462223e-03  0 
 -6.612805e-04  -2.811590e-03  0 
 5.929205e-05  -1.852434e-03  0 
 5.028587e-05  -2.197551e-03  0 
 6.431419e-05  -2.507064e-03  0 
 8.927348e-05  -2.788431e-03  0 
 1.956637e-04  -3.086583e-03  0 
 -9.454814e-04  -3.742260e-03  0 
 -6.768427e-04  -3.870944e-03  0 
 -3.631375e-04  -3.918856e-03  0 
 -3.454169e-05  -3.893541e-03  0 
 2.742220e-04  -3.804094e-03  0 
 -6.504017e-04  -3.203864e-03  0 
 6.206527e-05  -1.840202e-03  0 
 -6.849806e-06  -3.313479e-03  0 
 8.896983e-05  -1.422736e-03  0 
 -5.118521e-04  -2.372298e-03  0 
 9.700272e-05  -2.598455e-03  0 
 -3.346608e-04  -3.474723e-03  0 
 -1.238966e-04  -1.827939e-03  0 
 -2.740870e-04  -2.286884e-03  0 
 -3.757318e-04  -2.951966e-03  0 
 -9.567564e-06  -2.219051e-03  0 
 1.768426e-04  -2.963498e-03  0 
 -6.463271e-04  -2.626685e-03  0 
 -1.606848e-04  -1.370781e-03  0 
 -4.821743e-04  -1.919138e-03  0 
 -6.128268e-05  -2.985960e-03  0 
 -9.352900e-06  -1.306932e-03  0 
 1.536986e-04  -1.895232e-03  0 
 2.132412e-04  -3.377179e-03  0 
 -2.979798e-04  -1.392657e-03  0 
 1.469043e-04  -2.584611e-03  0 
 1.489934e-04  -2.257468e-03  0 
 -1.712863e-04  -2.576599e-03  0 
 -3.955713e-04  -2.596828e-03  0 
 1.428163e-04  -1.503426e-03  0 
 -5.421980e-04  -2.220683e-03  0 
 -3.262845e-04  -1.904575e-03  0 
 -5.328269e-04  -2.770865e-03  0 
 -7.753195e-04  -2.986621e-03  0 
 2.851146e-04  -3.428901e-03  0 
 -4.517091e-04  -1.524729e-03  0 
VECTORS displacement_ITER12 FLOAT
 -4.050220e-04  -1.079418e-03  0 
 1.313728e-04  -1.266713e-03  0 
 -9.790047e-04  -3.377632e-03  0 
 3.996145e-04  -3.566854e-03  0 
 -2.428266e-04  -8.860034e-04  0 
 -1.304456e-04  -8.170749e-04  0 
 -4.951862e-05  -7.816888e-04  0 
 4.321337e-05  -8.159213e-04  0 
 1.019382e-04  -9.447406e-04  0 
 -4.502261e-04  -1.520291e-03  0 
 -4.684558e-04  -1.867966e-03  0 
 -4.974975e-04  -2.163317e-03  0 
 -5.568608e-04  -2.451573e-03  0 
 -6.848632e-04  -2.806677e-03  0 
 5.920166e-05  -1.864555e-03  0 
 3.610469e-05  -2.200061e-03  0 
 4.292533e-05  -2.499124e-03  0 
 7.091163e-05  -2.780142e-03  0 
 1.715512e-04  -3.066635e-03  0 
 -9.457202e-04  -3.732823e-03  0 
 -6.901078e-04  -3.840945e-03  0 
 -3.774739e-04  -3.893987e-03  0 
 -5.237934e-05  -3.876460e-03  0 
 2.479929e-04  -3.782613e-03  0 
 -6.504344e-04  -3.190905e-03  0 
 5.228612e-05  -1.854302e-03  0 
 -2.440380e-05  -3.300925e-03  0 
 8.250410e-05  -1.440335e-03  0 
 -5.156449e-04  -2.366940e-03  0 
 8.308817e-05  -2.597030e-03  0 
 -3.490876e-04  -3.455077e-03  0 
 -1.344532e-04  -1.834807e-03  0 
 -2.808295e-04  -2.286247e-03  0 
 -3.826420e-04  -2.944771e-03  0 
 -1.939086e-05  -2.225616e-03  0 
 1.579351e-04  -2.954746e-03  0 
 -6.410569e-04  -2.610980e-03  0 
 -1.734519e-04  -1.376890e-03  0 
 -4.867635e-04  -1.915923e-03  0 
 -7.596104e-05  -2.977726e-03  0 
 -2.343381e-05  -1.321629e-03  0 
 1.467954e-04  -1.911459e-03  0 
 1.895480e-04  -3.364619e-03  0 
 -2.985204e-04  -1.392562e-03  0 
 1.293794e-04  -2.579428e-03  0 
 1.377669e-04  -2.264317e-03  0 
 -1.797494e-04  -2.575697e-03  0 
 -4.011642e-04  -2.592863e-03  0 
 1.386402e-04  -1.529473e-03  0 
 -5.446254e-04  -2.208234e-03  0 
 -3.319853e-04  -1.902598e-03  0 
 -5.352404e-04  -2.761787e-03  0 
 -7.784120e-04  -2.976716e-03  0 
 2.593399e-04  -3.419475e-03  0 
 -4.513653e-04  -1.533648e-03  0 
VECTORS displacement_ITER13 FLOAT
 -4.043103e-04  -1.073668e-03  0 
 1.316254e-04  -1.268599e-03  0 
 -9.641857e-04  -3.375102e-03  0 
 3.622709e-04  -3.548737e-03  0 
 -2.492109e-04  -8.990858e-04  0 
 -1.342288e-04  -8.041844e-04  0 
 -3.614084e-05  -7.665210e-04  0 
 4.303533e-05  -8.110860e-04  0 
 1.037625e-04  -9.430031e-04  0 
 -4.608055e-04  -1.538359e-03  0 
 -4.815005e-04  -1.873654e-03  0 
 -5.054938e-04  -2.168689e-03  0 
 -5.729446e-04  -2.493684e-03  0 
 -6.941076e-04  -2.820740e-03  0 
 5.750373e-05  -1.858212e-03  0 
 3.532208e-05  -2.193568e-03  0 
 4.543353e-05  -2.495511e-03  0 
 7.692217e-05  -2.787892e-03  0 
 1.693252e-04  -3.094576e-03  0 
 -9.482079e-04  -3.766432e-03  0 
 -6.990117e-04  -3.857785e-03  0 
 -3.765066e-04  -3.899637e-03  0 
 -4.783099e-05  -3.887606e-03  0 
 2.564007e-04  -3.809914e-03  0 
 -6.524012e-04  -3.212439e-03  0 
 5.819622e-05  -1.850601e-03  0 
 -2.481215e-05  -3.313271e-03  0 
 8.539816e-05  -1.437584e-03  0 
 -5.172515e-04  -2.378360e-03  0 
 8.160106e-05  -2.602387e-03  0 
 -3.496637e-04  -3.463272e-03  0 
 -1.323138e-04  -1.837818e-03  0 
 -2.814214e-04  -2.296592e-03  0 
 -3.815899e-04  -2.958226e-03  0 
 -1.760576e-05  -2.230131e-03  0 
 1.550780e-04  -2.968647e-03  0 
 -6.451865e-04  -2.631762e-03  0 
 -1.710326e-04  -1.377451e-03  0 
 -4.941894e-04  -1.919382e-03  0 
 -7.816791e-05  -2.988636e-03  0 
 -1.548227e-05  -1.312395e-03  0 
 1.488785e-04  -1.907527e-03  0 
 1.908680e-04  -3.384152e-03  0 
 -3.088497e-04  -1.395654e-03  0 
 1.308687e-04  -2.577664e-03  0 
 1.407939e-04  -2.261235e-03  0 
 -1.800077e-04  -2.586698e-03  0 
 -4.009336e-04  -2.605231e-03  0 
 1.408965e-04  -1.527359e-03  0 
 -5.531571e-04  -2.217208e-03  0 
 -3.348850e-04  -1.910765e-03  0 
 -5.360943e-04  -2.777958e-03  0 
 -7.923821e-04  -3.003497e-03  0 
 2.588724e-04  -3.443269e-03  0 
 -4.553043e-04  -1.541629e-03  0 
VECTORS displacement_ITER14 FLOAT
 -3.998611e-04  -1.069686e-03  0 
 1.389933e-04  -1.274711e-03  0 
 -9.696229e-04  -3.380644e-03  0 
 3.675732e-04  -3.560071e-03  0 
 -2.544794e-04  -8.990871e-04  0 
 -1.327922e-04  -8.053075e-04  0 
 -3.166116e-05  -7.845397e-04  0 
 3.742184e-05  -8.313954e-04  0 
 1.123020e-04  -9.415103e-04  0 
 -4.532540e-04  -1.531168e-03  0 
 -4.800936e-04  -1.870176e-03  0 
 -5.127031e-04  -2.181681e-03  0 
 -5.717499e-04  -2.490741e-03  0 
 -6.968476e-04  -2.807420e-03  0 
 6.177531e-05  -1.854881e-03  0 
 2.862904e-05  -2.204839e-03  0 
 3.722523e-05  -2.502512e-03  0 
 6.639734e-05  -2.791531e-03  0 
 1.603463e-04  -3.091106e-03  0 
 -9.531095e-04  -3.758034e-03  0 
 -7.011676e-04  -3.842376e-03  0 
 -3.809369e-04  -3.875432e-03  0 
 -5.381474e-05  -3.868838e-03  0 
 2.510227e-04  -3.808272e-03  0 
 -6.530505e-04  -3.203015e-03  0 
 5.438843e-05  -1.859102e-03  0 
 -3.055010e-05  -3.304778e-03  0 
 8.001409e-05  -1.450998e-03  0 
 -5.134834e-04  -2.378615e-03  0 
 7.711750e-05  -2.604403e-03  0 
 -3.520667e-04  -3.449650e-03  0 
 -1.311973e-04  -1.843235e-03  0 
 -2.804246e-04  -2.298889e-03  0 
 -3.819805e-04  -2.952839e-03  0 
 -1.985190e-05  -2.234123e-03  0 
 1.482648e-04  -2.966289e-03  0 
 -6.462528e-04  -2.632951e-03  0 
 -1.656554e-04  -1.385908e-03  0 
 -4.902285e-04  -1.918762e-03  0 
 -8.227218e-05  -2.984596e-03  0 
 -1.670227e-05  -1.323536e-03  0 
 1.444784e-04  -1.918537e-03  0 
 1.830495e-04  -3.377508e-03  0 
 -3.089574e-04  -1.398979e-03  0 
 1.233889e-04  -2.582957e-03  0 
 1.355584e-04  -2.268909e-03  0 
 -1.814803e-04  -2.586788e-03  0 
 -3.995777e-04  -2.603925e-03  0 
 1.471484e-04  -1.529715e-03  0 
 -5.502534e-04  -2.219063e-03  0 
 -3.315689e-04  -1.915850e-03  0 
 -5.349690e-04  -2.775290e-03  0 
 -7.923630e-04  -2.993437e-03  0 
 2.534821e-04  -3.440777e-03  0 
 -4.532050e-04  -1.535838e-03  0 
VECTORS displacement_ITER15 FLOAT
 -4.051139e-04  -1.070911e-03  0 
 1.370660e-04  -1.277204e-03  0 
 -9.783478e-04  -3.374595e-03  0 
 3.623385e-04  -3.550859e-03  0 
 -2.491830e-04  -8.920751e-04  0 
 -1.292521e-04  -8.057569e-04  0 
 -3.829348e-05  -7.809988e-04  0 
 4.136008e-05  -8.217366e-04  0 
 1.133560e-04  -9.421052e-04  0 
 -4.590759e-04  -1.540646e-03  0 
 -4.894524e-04  -1.885812e-03  0 
 -5.256003e-04  -2.190215e-03  0 
 -5.835056e-04  -2.484054e-03  0 
 -7.005083e-04  -2.800880e-03  0 
 5.772056e-05  -1.857393e-03  0 
 3.457585e-05  -2.201862e-03  0 
 4.421630e-05  -2.505107e-03  0 
 7.079875e-05  -2.793260e-03  0 
 1.637267e-04  -3.087132e-03  0 
 -9.575784e-04  -3.756603e-03  0 
 -6.984928e-04  -3.853135e-03  0 
 -3.830056e-04  -3.884373e-03  0 
 -5.385438e-05  -3.874480e-03  0 
 2.500455e-04  -3.809460e-03  0 
 -6.585676e-04  -3.205186e-03  0 
 5.532069e-05  -1.857726e-03  0 