# vtk DataFile Version 3.1
this is an vtk file created by FEMAC
ASCII
DATASET UNSTRUCTURED_GRID
POINTS 60 FLOAT
4.000000 1.000000 0.000000
4.000000 2.000000 0.000000
5.000000 1.000000 0.000000
5.000000 2.000000 0.000000
4.000000 1.166667 0.000000
4.000000 1.333333 0.000000
4.000000 1.500000 0.000000
4.000000 1.666667 0.000000
4.000000 1.833333 0.000000
4.166667 1.000000 0.000000
4.333333 1.000000 0.000000
4.500000 1.000000 0.000000
4.666667 1.000000 0.000000
4.833333 1.000000 0.000000
4.166667 2.000000 0.000000
4.333333 2.000000 0.000000
4.500000 2.000000 0.000000
4.666667 2.000000 0.000000
4.833333 2.000000 0.000000
5.000000 1.166667 0.000000
5.000000 1.333333 0.000000
5.000000 1.500000 0.000000
5.000000 1.666667 0.000000
5.000000 1.833333 0.000000
4.498482 1.616703 0.000000
4.666507 1.395768 0.000000
4.331072 1.399117 0.000000
4.667889 1.726162 0.000000
4.330610 1.727329 0.000000
4.754113 1.134747 0.000000
4.247702 1.137008 0.000000
4.857480 1.769345 0.000000
4.141978 1.769939 0.000000
4.499268 1.773265 0.000000
4.500341 1.349851 0.000000
4.691082 1.544940 0.000000
4.305716 1.549691 0.000000
4.834058 1.414559 0.000000
4.164279 1.417106 0.000000
4.842414 1.601389 0.000000
4.156333 1.603315 0.000000
4.552589 1.488933 0.000000
4.434745 1.490287 0.000000
4.754175 1.885040 0.000000
4.245378 1.885333 0.000000
4.879345 1.240428 0.000000
4.120118 1.242078 0.000000
4.373598 1.256627 0.000000
4.628765 1.254398 0.000000
4.501706 1.217165 0.000000
4.247354 1.290387 0.000000
4.752557 1.287980 0.000000
4.580417 1.120021 0.000000
4.422793 1.121803 0.000000
4.584058 1.880422 0.000000
4.415441 1.877725 0.000000
4.893358 1.108368 0.000000
4.106897 1.109151 0.000000
4.888998 1.897544 0.000000
4.110805 1.897721 0.000000
CELLS 94 376 
3 32  8  7
3 23 31 22
3 13 29 12
3 30  9 10
3 24 33 28
3 33 24 27
3 35 27 24
3 28 36 24
3 39 22 31
3 27 39 31
3 7 40 32
3 40 28 32
3 41 25 35
3 25 41 34
3 24 41 35
3 26 42 36
3 42 26 34
3 42 24 36
3 20 45 19
3 45 20 37
3 46  5  4
3 5 46 38
3 42 41 24
3 34 41 42
3 38  6  5
3 36 38 26
3 21 37 20
3 37 35 25
3 39 21 22
3 37 21 39
3 27 35 39
3 39 35 37
3 6 40  7
3 6 38 40
3 36 28 40
3 36 40 38
3 34 48 25
3 44 15 14
3 44 32 28
3 34 26 47
3 17 43 18
3 31 43 27
3 49 48 34
3 47 49 34
3 50 26 38
3 46 50 38
3 26 50 47
3 25 51 37
3 51 45 37
3 51 25 48
3 52 11 12
3 52 48 49
3 11 53 10
3 47 53 49
3 54 17 16
3 17 54 43
3 15 55 16
3 55 15 44
3 56 13  2
3 19 56  2
3 13 56 29
3 57  4  0
3 57  9 30
3 9 57  0
3 18 58  3
3 58 23  3
3 8 59  1
3 59 14  1
3 55 54 16
3 33 54 55
3 51 29 45
3 48 29 51
3 30 50 46
3 30 47 50
3 55 28 33
3 44 28 55
3 27 54 33
3 27 43 54
3 29 52 12
3 29 48 52
3 53 30 10
3 47 30 53
3 45 56 19
3 45 29 56
3 57 46  4
3 30 46 57
3 52 53 11
3 52 49 53
3 14 59 44
3 59 32 44
3 32 59  8
3 58 18 43
3 31 58 43
3 58 31 23
CELL_TYPES 94
5 5 5 5 5 5 5 5 5 5 5 5 5 5 5 5 5 5 5 5 5 5 5 5 5 5 5 5 5 5 5 5 5 5 5 5 5 5 5 5 5 5 5 5 5 5 5 5 5 5 5 5 5 5 5 5 5 5 5 5 5 5 5 5 5 5 5 5 5 5 5 5 5 5 5 5 5 5 5 5 5 5 5 5 5 5 5 5 5 5 5 5 5 5 
POINT_DATA 60
VECTORS displacement_ITER1 FLOAT
 -7.977256e-03  -1.791460e-02  0 
 -2.855129e-03  -1.512879e-02  0 
 -9.405991e-03  -2.416088e-02  0 
 -2.957003e-03  -2.217844e-02  0 
 -6.472452e-03  -1.602885e-02  0 
 -6.015698e-03  -1.565625e-02  0 
 -5.133823e-03  -1.571506e-02  0 
 -4.045581e-03  -1.569290e-02  0 
 -2.491930e-03  -1.585934e-02  0 
 -8.631998e-03  -1.879019e-02  0 
 -8.682502e-03  -1.973117e-02  0 
 -8.773620e-03  -2.125145e-02  0 
 -8.974021e-03  -2.249862e-02  0 
 -8.965588e-03  -2.328751e-02  0 
 -2.388849e-03  -1.702370e-02  0 
 -2.508451e-03  -1.782792e-02  0 
 -2.806035e-03  -1.907165e-02  0 
 -2.828479e-03  -2.030140e-02  0 
 -2.761316e-03  -2.137749e-02  0 
 -8.305271e-03  -2.359480e-02  0 
 -7.248682e-03  -2.346419e-02  0 
 -6.346593e-03  -2.343478e-02  0 
 -5.214539e-03  -2.364099e-02  0 
 -3.991201e-03  -2.363124e-02  0 
 -4.797005e-03  -1.992422e-02  0 
 -6.561627e-03  -2.167796e-02  0 
 -5.960871e-03  -1.900904e-02  0 
 -4.415233e-03  -2.081203e-02  0 
 -3.866161e-03  -1.848911e-02  0 
 -8.220079e-03  -2.272189e-02  0 
 -7.779891e-03  -1.898662e-02  0 
 -4.368324e-03  -2.223955e-02  0 
 -3.305828e-03  -1.697733e-02  0 
 -3.880840e-03  -1.954533e-02  0 
 -6.602610e-03  -2.061163e-02  0 
 -5.673255e-03  -2.151886e-02  0 
 -4.953224e-03  -1.853175e-02  0 
 -6.689074e-03  -2.266926e-02  0 
 -5.635261e-03  -1.736738e-02  0 
 -5.582244e-03  -2.243232e-02  0 
 -4.504626e-03  -1.722130e-02  0 
 -5.768674e-03  -2.066378e-02  0 
 -5.534245e-03  -1.970145e-02  0 
 -3.384324e-03  -2.107192e-02  0 
 -2.942259e-03  -1.749051e-02  0 
 -7.749901e-03  -2.304729e-02  0 
 -6.583332e-03  -1.711056e-02  0 
 -7.026586e-03  -1.980873e-02  0 
 -7.369407e-03  -2.171272e-02  0 
 -7.426670e-03  -2.088269e-02  0 
 -6.510966e-03  -1.843138e-02  0 
 -7.341326e-03  -2.239967e-02  0 
 -8.108581e-03  -2.164054e-02  0 
 -7.944702e-03  -2.042109e-02  0 
 -3.368939e-03  -1.988358e-02  0 
 -3.230484e-03  -1.875978e-02  0 
 -8.489981e-03  -2.329987e-02  0 
 -7.616275e-03  -1.779319e-02  0 
 -3.310785e-03  -2.214137e-02  0 
 -2.854940e-03  -1.625719e-02  0 
VECTORS displacement_ITER2 FLOAT
 -6.095185e-03  -1.290223e-02  0 
 -1.802052e-03  -1.116666e-02  0 
 -6.651327e-03  -1.815831e-02  0 
 -1.867539e-03  -1.686931e-02  0 
 -4.786143e-03  -1.254163e-02  0 
 -4.328391e-03  -1.212145e-02  0 
 -3.598093e-03  -1.231424e-02  0 
 -2.987824e-03  -1.251376e-02  0 
 -2.222101e-03  -1.245191e-02  0 
 -5.902856e-03  -1.378720e-02  0 
 -6.002510e-03  -1.503129e-02  0 
 -6.266191e-03  -1.593653e-02  0 
 -6.339552e-03  -1.694105e-02  0 
 -6.432431e-03  -1.766898e-02  0 
 -2.131988e-03  -1.310020e-02  0 
 -2.219516e-03  -1.365414e-02  0 
 -2.234287e-03  -1.433278e-02  0 
 -2.207717e-03  -1.531206e-02  0 
 -2.082528e-03  -1.601405e-02  0 
 -5.977104e-03  -1.764734e-02  0 
 -5.130537e-03  -1.733035e-02  0 
 -4.520641e-03  -1.726027e-02  0 
 -3.869755e-03  -1.743787e-02  0 
 -3.015360e-03  -1.753615e-02  0 
 -3.530149e-03  -1.508819e-02  0 
 -4.628825e-03  -1.629758e-02  0 
 -4.224194e-03  -1.456561e-02  0 
 -3.325398e-03  -1.562350e-02  0 
 -2.929726e-03  -1.408172e-02  0 
 -5.754704e-03  -1.709388e-02  0 
 -5.368114e-03  -1.432020e-02  0 
 -3.299491e-03  -1.656023e-02  0 
 -2.652044e-03  -1.318026e-02  0 
 -2.972738e-03  -1.476821e-02  0 
 -4.615983e-03  -1.560412e-02  0 
 -4.110755e-03  -1.615101e-02  0 
 -3.550867e-03  -1.422571e-02  0 
 -4.738367e-03  -1.688934e-02  0 
 -3.983444e-03  -1.347003e-02  0 
 -4.085290e-03  -1.671557e-02  0 
 -3.217342e-03  -1.334794e-02  0 
 -4.126964e-03  -1.561993e-02  0 
 -3.956007e-03  -1.501356e-02  0 
 -2.599617e-03  -1.577696e-02  0 
 -2.453685e-03  -1.347588e-02  0 
 -5.457521e-03  -1.721090e-02  0 
 -4.778016e-03  -1.323630e-02  0 
 -4.906821e-03  -1.498977e-02  0 
 -5.142522e-03  -1.636500e-02  0 
 -5.181668e-03  -1.577216e-02  0 
 -4.638036e-03  -1.414578e-02  0 
 -5.152003e-03  -1.679589e-02  0 
 -5.676812e-03  -1.631906e-02  0 
 -5.577614e-03  -1.538222e-02  0 
 -2.641854e-03  -1.497220e-02  0 
 -2.561867e-03  -1.418611e-02  0 
 -6.046404e-03  -1.758442e-02  0 
 -5.387668e-03  -1.351062e-02  0 
 -2.510396e-03  -1.647638e-02  0 
 -2.431650e-03  -1.274732e-02  0 
VECTORS displacement_ITER3 FLOAT
 -5.000964e-03  -1.189628e-02  0 
 -2.355979e-03  -1.041239e-02  0 
 -5.652224e-03  -1.635318e-02  0 
 -2.036682e-03  -1.570023e-02  0 
 -4.554555e-03  -1.121962e-02  0 
 -4.024435e-03  -1.084943e-02  0 
 -3.491363e-03  -1.078515e-02  0 
 -2.966782e-03  -1.104327e-02  0 
 -2.551042e-03  -1.115778e-02  0 
 -5.422550e-03  -1.230592e-02  0 
 -5.608210e-03  -1.340450e-02  0 
 -5.538565e-03  -1.411374e-02  0 
 -5.437045e-03  -1.494891e-02  0 
 -5.426496e-03  -1.582334e-02  0 
 -2.439424e-03  -1.184424e-02  0 
 -2.246023e-03  -1.246759e-02  0 
 -2.176418e-03  -1.316762e-02  0 
 -2.346298e-03  -1.398672e-02  0 
 -2.571613e-03  -1.449268e-02  0 
 -5.236852e-03  -1.582522e-02  0 
 -4.731783e-03  -1.588538e-02  0 
 -4.176716e-03  -1.597631e-02  0 
 -3.570297e-03  -1.585798e-02  0 
 -3.130622e-03  -1.549965e-02  0 
 -3.421140e-03  -1.370342e-02  0 
 -4.319568e-03  -1.477366e-02  0 
 -4.011370e-03  -1.309873e-02  0 
 -3.180527e-03  -1.435128e-02  0 
 -2.937112e-03  -1.269007e-02  0 
 -5.051082e-03  -1.537667e-02  0 
 -4.962001e-03  -1.275915e-02  0 
 -3.147941e-03  -1.509522e-02  0 
 -2.731942e-03  -1.174721e-02  0 
 -2.933525e-03  -1.349701e-02  0 
 -4.306793e-03  -1.409640e-02  0 
 -3.832025e-03  -1.468254e-02  0 
 -3.439555e-03  -1.280456e-02  0 
 -4.412332e-03  -1.538656e-02  0 
 -3.834132e-03  -1.201276e-02  0 
 -3.729690e-03  -1.525998e-02  0 
 -3.147125e-03  -1.189851e-02  0 
 -3.891687e-03  -1.413966e-02  0 
 -3.768507e-03  -1.357261e-02  0 
 -2.727149e-03  -1.450677e-02  0 
 -2.565714e-03  -1.210884e-02  0 
 -4.951967e-03  -1.559936e-02  0 
 -4.476992e-03  -1.185179e-02  0 
 -4.563296e-03  -1.346502e-02  0 
 -4.713447e-03  -1.480360e-02  0 
 -4.783133e-03  -1.422255e-02  0 
 -4.366534e-03  -1.266095e-02  0 
 -4.728856e-03  -1.521002e-02  0 
 -5.097888e-03  -1.461264e-02  0 
 -5.127800e-03  -1.383731e-02  0 
 -2.653936e-03  -1.378578e-02  0 
 -2.581293e-03  -1.292407e-02  0 
 -5.219674e-03  -1.580115e-02  0 
 -4.972758e-03  -1.193905e-02  0 
 -2.828767e-03  -1.484559e-02  0 
 -2.643152e-03  -1.149738e-02  0 
VECTORS displacement_ITER4 FLOAT
 -4.882015e-03  -1.095895e-02  0 
 -2.379307e-03  -1.063702e-02  0 
 -4.996683e-03  -1.548699e-02  0 
 -2.191927e-03  -1.495198e-02  0 
 -3.918995e-03  -1.071961e-02  0 
 -3.500751e-03  -1.070687e-02  0 
 -3.151784e-03  -1.058340e-02  0 
 -2.690686e-03  -1.067572e-02  0 
 -2.146129e-03  -1.083575e-02  0 
 -4.871595e-03  -1.191162e-02  0 
 -4.869136e-03  -1.272971e-02  0 
 -4.880937e-03  -1.329906e-02  0 
 -4.949923e-03  -1.393625e-02  0 
 -5.001929e-03  -1.479979e-02  0 
 -2.116323e-03  -1.142797e-02  0 
 -2.009314e-03  -1.211371e-02  0 
 -1.936097e-03  -1.280625e-02  0 
 -2.023907e-03  -1.354068e-02  0 
 -2.229734e-03  -1.426034e-02  0 
 -4.525165e-03  -1.535804e-02  0 
 -4.070025e-03  -1.535273e-02  0 
 -3.644270e-03  -1.536769e-02  0 
 -3.190004e-03  -1.526612e-02  0 
 -2.630022e-03  -1.510652e-02  0 
 -3.025789e-03  -1.326356e-02  0 
 -3.781256e-03  -1.417222e-02  0 
 -3.582062e-03  -1.256309e-02  0 
 -2.825598e-03  -1.391529e-02  0 
 -2.599745e-03  -1.233795e-02  0 
 -4.503261e-03  -1.448549e-02  0 
 -4.400343e-03  -1.233618e-02  0 
 -2.786881e-03  -1.462614e-02  0 
 -2.390367e-03  -1.143356e-02  0 
 -2.594982e-03  -1.308390e-02  0 
 -3.845385e-03  -1.346045e-02  0 
 -3.361576e-03  -1.418726e-02  0 
 -3.095540e-03  -1.235546e-02  0 
 -3.808760e-03  -1.481984e-02  0 
 -3.430947e-03  -1.160899e-02  0 
 -3.287788e-03  -1.474140e-02  0 
 -2.867470e-03  -1.154294e-02  0 
 -3.439640e-03  -1.362001e-02  0 
 -3.358726e-03  -1.305041e-02  0 
 -2.428994e-03  -1.412300e-02  0 
 -2.251156e-03  -1.177227e-02  0 
 -4.268379e-03  -1.498115e-02  0 
 -3.852830e-03  -1.147143e-02  0 
 -4.087987e-03  -1.286853e-02  0 
 -4.172070e-03  -1.403304e-02  0 
 -4.272017e-03  -1.346321e-02  0 
 -3.851672e-03  -1.216213e-02  0 
 -4.112167e-03  -1.452738e-02  0 
 -4.567686e-03  -1.371761e-02  0 
 -4.545577e-03  -1.311124e-02  0 
 -2.341042e-03  -1.335507e-02  0 
 -2.285173e-03  -1.255571e-02  0 
 -4.630885e-03  -1.506256e-02  0 
 -4.385833e-03  -1.157339e-02  0 
 -2.452276e-03  -1.460598e-02  0 
 -2.253963e-03  -1.112256e-02  0 
VECTORS displacement_ITER5 FLOAT
 -4.665974e-03  -1.087291e-02  0 
 -2.129136e-03  -1.056384e-02  0 
 -4.818221e-03  -1.533792e-02  0 
 -2.102108e-03  -1.481827e-02  0 
 -4.076977e-03  -1.079228e-02  0 
 -3.629767e-03  -1.076729e-02  0 
 -3.209053e-03  -1.076138e-02  0 
 -2.848212e-03  -1.079276e-02  0 
 -2.342154e-03  -1.075075e-02  0 
 -4.712974e-03  -1.173831e-02  0 
 -4.743823e-03  -1.249724e-02  0 
 -4.806107e-03  -1.328126e-02  0 
 -4.880282e-03  -1.397002e-02  0 
 -4.932118e-03  -1.467664e-02  0 
 -2.033971e-03  -1.156069e-02  0 
 -2.213077e-03  -1.225282e-02  0 
 -2.266259e-03  -1.274161e-02  0 
 -2.256578e-03  -1.320385e-02  0 
 -2.207240e-03  -1.391919e-02  0 
 -4.655276e-03  -1.524226e-02  0 
 -4.221452e-03  -1.519519e-02  0 
 -3.746289e-03  -1.510779e-02  0 
 -3.370243e-03  -1.498194e-02  0 
 -2.845531e-03  -1.495742e-02  0 
 -3.096628e-03  -1.318602e-02  0 
 -3.818789e-03  -1.403018e-02  0 
 -3.617503e-03  -1.255064e-02  0 
 -2.936446e-03  -1.371044e-02  0 
 -2.713728e-03  -1.239501e-02  0 
 -4.519773e-03  -1.443454e-02  0 
 -4.354046e-03  -1.218136e-02  0 
 -2.998833e-03  -1.435478e-02  0 
 -2.592220e-03  -1.153098e-02  0 
 -2.684948e-03  -1.301029e-02  0 
 -3.848047e-03  -1.336527e-02  0 
 -3.446681e-03  -1.402208e-02  0 
 -3.188395e-03  -1.236565e-02  0 
 -3.880026e-03  -1.462327e-02  0 
 -3.483775e-03  -1.168661e-02  0 
 -3.410980e-03  -1.453013e-02  0 
 -2.993213e-03  -1.160349e-02  0 
 -3.496990e-03  -1.351620e-02  0 
 -3.420227e-03  -1.299184e-02  0 
 -2.572405e-03  -1.373536e-02  0 
 -2.361030e-03  -1.199004e-02  0 
 -4.362804e-03  -1.486837e-02  0 
 -3.953724e-03  -1.147776e-02  0 
 -4.055322e-03  -1.279508e-02  0 
 -4.162094e-03  -1.392680e-02  0 
 -4.215338e-03  -1.336767e-02  0 
 -3.885773e-03  -1.215283e-02  0 
 -4.151748e-03  -1.439402e-02  0 
 -4.512472e-03  -1.368194e-02  0 
 -4.446426e-03  -1.298849e-02  0 
 -2.477838e-03  -1.314346e-02  0 
 -2.417933e-03  -1.261765e-02  0 
 -4.643595e-03  -1.500152e-02  0 
 -4.360926e-03  -1.145213e-02  0 
 -2.568385e-03  -1.431516e-02  0 
 -2.306307e-03  -1.124388e-02  0 
VECTORS displacement_ITER6 FLOAT
 -4.556235e-03  -1.086772e-02  0 
 -2.082331e-03  -1.082739e-02  0 
 -4.888842e-03  -1.516089e-02  0 
 -2.257018e-03  -1.461395e-02  0 
 -4.026180e-03  -1.064593e-02  0 
 -3.591534e-03  -1.056009e-02  0 
 -3.174295e-03  -1.053141e-02  0 
 -2.744888e-03  -1.053301e-02  0 
 -2.353342e-03  -1.059856e-02  0 
 -4.687300e-03  -1.170650e-02  0 
 -4.765651e-03  -1.244481e-02  0 
 -4.803640e-03  -1.322555e-02  0 
 -4.801980e-03  -1.392844e-02  0 
 -4.863758e-03  -1.451359e-02  0 
 -2.047238e-03  -1.145634e-02  0 
 -2.082249e-03  -1.201047e-02  0 
 -2.157888e-03  -1.262402e-02  0 
 -2.185017e-03  -1.324607e-02  0 
 -2.215186e-03  -1.384772e-02  0 
 -4.584575e-03  -1.513704e-02  0 
 -4.211023e-03  -1.509720e-02  0 
 -3.743773e-03  -1.501336e-02  0 
 -3.251902e-03  -1.494477e-02  0 
 -2.799859e-03  -1.484761e-02  0 
 -3.061705e-03  -1.309388e-02  0 
 -3.806406e-03  -1.394883e-02  0 
 -3.594129e-03  -1.243716e-02  0 
 -2.895004e-03  -1.364429e-02  0 
 -2.654798e-03  -1.226448e-02  0 
 -4.522081e-03  -1.432317e-02  0 
 -4.349732e-03  -1.208516e-02  0 
 -2.910131e-03  -1.433216e-02  0 
 -2.491966e-03  -1.134159e-02  0 
 -2.646190e-03  -1.292087e-02  0 
 -3.836658e-03  -1.327955e-02  0 
 -3.412966e-03  -1.393554e-02  0 
 -3.145467e-03  -1.223928e-02  0 
 -3.871011e-03  -1.454065e-02  0 
 -3.454158e-03  -1.152414e-02  0 
 -3.367002e-03  -1.443771e-02  0 
 -2.934467e-03  -1.143818e-02  0 
 -3.469506e-03  -1.342445e-02  0 
 -3.390262e-03  -1.289106e-02  0 
 -2.506938e-03  -1.374343e-02  0 
 -2.236939e-03  -1.178914e-02  0 
 -4.339259e-03  -1.476895e-02  0 
 -3.929137e-03  -1.132932e-02  0 
 -4.040392e-03  -1.270887e-02  0 
 -4.165837e-03  -1.384831e-02  0 
 -4.206083e-03  -1.330980e-02  0 
 -3.864883e-03  -1.203096e-02  0 
 -4.143064e-03  -1.430987e-02  0 
 -4.495445e-03  -1.364515e-02  0 
 -4.446300e-03  -1.293164e-02  0 
 -2.432233e-03  -1.309937e-02  0 
 -2.345457e-03  -1.247138e-02  0 
 -4.626519e-03  -1.481343e-02  0 
 -4.328999e-03  -1.135110e-02  0 
 -2.548325e-03  -1.427147e-02  0 
 -2.197620e-03  -1.120794e-02  0 
VECTORS displacement_ITER7 FLOAT
 -4.570503e-03  -1.080620e-02  0 
 -1.934726e-03  -1.093331e-02  0 
 -4.946304e-03  -1.507533e-02  0 
 -2.315983e-03  -1.451644e-02  0 
 -4.006414e-03  -1.063023e-02  0 
 -3.535342e-03  -1.052513e-02  0 
 -3.111452e-03  -1.051504e-02  0 
 -2.687988e-03  -1.055080e-02  0 
 -2.331653e-03  -1.067540e-02  0 
 -4.677500e-03  -1.174956e-02  0 
 -4.734477e-03  -1.250407e-02  0 
 -4.747724e-03  -1.317873e-02  0 
 -4.760280e-03  -1.385088e-02  0 
 -4.830993e-03  -1.445040e-02  0 
 -2.094687e-03  -1.142222e-02  0 
 -2.093767e-03  -1.198672e-02  0 
 -2.131554e-03  -1.260886e-02  0 
 -2.156270e-03  -1.321123e-02  0 
 -2.218015e-03  -1.376728e-02  0 
 -4.562317e-03  -1.504109e-02  0 
 -4.148229e-03  -1.497259e-02  0 
 -3.694941e-03  -1.492326e-02  0 
 -3.202380e-03  -1.488197e-02  0 
 -2.781535e-03  -1.475068e-02  0 
 -3.022814e-03  -1.306374e-02  0 
 -3.773448e-03  -1.389878e-02  0 
 -3.553044e-03  -1.243255e-02  0 
 -2.863633e-03  -1.360240e-02  0 
 -2.606725e-03  -1.224479e-02  0 
 -4.485265e-03  -1.423641e-02  0 
 -4.320491e-03  -1.211607e-02  0 
 -2.872779e-03  -1.428298e-02  0 
 -2.436015e-03  -1.137116e-02  0 
 -2.614875e-03  -1.288255e-02  0 
 -3.806258e-03  -1.325845e-02  0 
 -3.378162e-03  -1.388862e-02  0 
 -3.091170e-03  -1.222814e-02  0 
 -3.831486e-03  -1.446604e-02  0 
 -3.397738e-03  -1.151735e-02  0 
 -3.329523e-03  -1.437664e-02  0 
 -2.870821e-03  -1.144060e-02  0 
 -3.434068e-03  -1.339258e-02  0 
 -3.349117e-03  -1.287332e-02  0 
 -2.482821e-03  -1.370530e-02  0 
 -2.214623e-03  -1.177254e-02  0 
 -4.293833e-03  -1.465739e-02  0 
 -3.893785e-03  -1.133305e-02  0 
 -4.013500e-03  -1.270772e-02  0 
 -4.136459e-03  -1.379759e-02  0 
 -4.183998e-03  -1.328949e-02  0 
 -3.829542e-03  -1.203833e-02  0 
 -4.108043e-03  -1.423649e-02  0 
 -4.461796e-03  -1.358909e-02  0 
 -4.427915e-03  -1.293693e-02  0 
 -2.403981e-03  -1.306569e-02  0 
 -2.325529e-03  -1.243374e-02  0 
 -4.614752e-03  -1.470298e-02  0 
 -4.300881e-03  -1.135876e-02  0 
 -2.548163e-03  -1.421150e-02  0 
 -2.146571e-03  -1.129585e-02  0 
VECTORS displacement_ITER8 FLOAT
 -4.622134e-03  -1.078680e-02  0 
 -1.826662e-03  -1.082472e-02  0 
 -4.981120e-03  -1.511012e-02  0 
 -2.274346e-03  -1.453790e-02  0 
 -4.079816e-03  -1.069246e-02  0 
 -3.586657e-03  -1.060965e-02  0 
 -3.144706e-03  -1.062484e-02  0 
 -2.747356e-03  -1.066226e-02  0 
 -2.351985e-03  -1.070559e-02  0 
 -4.685243e-03  -1.175956e-02  0 
 -4.726065e-03  -1.252272e-02  0 
 -4.744837e-03  -1.319778e-02  0 
 -4.788750e-03  -1.387411e-02  0 
 -4.841732e-03  -1.452125e-02  0 
 -2.092455e-03  -1.142987e-02  0 
 -2.194755e-03  -1.202019e-02  0 
 -2.230659e-03  -1.254831e-02  0 
 -2.245198e-03  -1.308295e-02  0 
 -2.256983e-03  -1.371453e-02  0 
 -4.648407e-03  -1.498060e-02  0 
 -4.194856e-03  -1.488677e-02  0 
 -3.733656e-03  -1.482826e-02  0 
 -3.284810e-03  -1.476332e-02  0 
 -2.820065e-03  -1.467799e-02  0 
 -3.064705e-03  -1.305546e-02  0 
 -3.804115e-03  -1.386963e-02  0 
 -3.580018e-03  -1.247094e-02  0 
 -2.922292e-03  -1.354248e-02  0 
 -2.651259e-03  -1.227343e-02  0 
 -4.495581e-03  -1.425716e-02  0 
 -4.333313e-03  -1.214556e-02  0 
 -2.949773e-03  -1.417826e-02  0 
 -2.497712e-03  -1.144680e-02  0 
 -2.665163e-03  -1.285682e-02  0 
 -3.824913e-03  -1.326593e-02  0 
 -3.423968e-03  -1.384410e-02  0 
 -3.129555e-03  -1.226700e-02  0 
 -3.870316e-03  -1.440109e-02  0 
 -3.428438e-03  -1.159076e-02  0 
 -3.384738e-03  -1.430387e-02  0 
 -2.914118e-03  -1.150782e-02  0 
 -3.470179e-03  -1.338118e-02  0 
 -3.383101e-03  -1.288703e-02  0 
 -2.564236e-03  -1.359998e-02  0 
 -2.273295e-03  -1.184006e-02  0 
 -4.342960e-03  -1.460641e-02  0 
 -3.937042e-03  -1.139721e-02  0 
 -4.028912e-03  -1.273306e-02  0 
 -4.147300e-03  -1.379455e-02  0 
 -4.193860e-03  -1.329661e-02  0 
 -3.857748e-03  -1.208915e-02  0 
 -4.139740e-03  -1.420573e-02  0 
 -4.469311e-03  -1.359259e-02  0 
 -4.431450e-03  -1.295185e-02  0 
 -2.472028e-03  -1.299049e-02  0 
 -2.384650e-03  -1.242825e-02  0 
 -4.653897e-03  -1.471480e-02  0 
 -4.333463e-03  -1.139016e-02  0 
 -2.597362e-03  -1.413490e-02  0 
 -2.170293e-03  -1.133340e-02  0 
VECTORS displacement_ITER9 FLOAT
 -4.639334e-03  -1.079643e-02  0 
 -1.947293e-03  -1.089231e-02  0 
 -4.995467e-03  -1.505214e-02  0 
 -2.354587e-03  -1.447713e-02  0 
 -4.103495e-03  -1.062528e-02  0 
 -3.628329e-03  -1.054600e-02  0 
 -3.182408e-03  -1.051235e-02  0 
 -2.732743e-03  -1.054581e-02  0 
 -2.319417e-03  -1.062801e-02  0 
 -4.718457e-03  -1.172804e-02  0 
 -4.783266e-03  -1.248887e-02  0 
 -4.835497e-03  -1.319138e-02  0 
 -4.867565e-03  -1.386049e-02  0 
 -4.895127e-03  -1.453419e-02  0 
 -2.106537e-03  -1.136225e-02  0 
 -2.144779e-03  -1.195317e-02  0 
 -2.172025e-03  -1.256641e-02  0 
 -2.214483e-03  -1.314658e-02  0 
 -2.276921e-03  -1.376014e-02  0 
 -4.665669e-03  -1.496873e-02  0 
 -4.225048e-03  -1.490879e-02  0 
 -3.771076e-03  -1.486399e-02  0 
 -3.305032e-03  -1.479780e-02  0 
 -2.797444e-03  -1.469609e-02  0 
 -3.085283e-03  -1.304633e-02  0 
 -3.841071e-03  -1.387789e-02  0 
 -3.622318e-03  -1.242852e-02  0 
 -2.927473e-03  -1.356429e-02  0 
 -2.655605e-03  -1.223235e-02  0 
 -4.545124e-03  -1.426793e-02  0 
 -4.386065e-03  -1.209905e-02  0 
 -2.939153e-03  -1.420883e-02  0 
 -2.470058e-03  -1.136192e-02  0 
 -2.671330e-03  -1.285319e-02  0 
 -3.866283e-03  -1.324915e-02  0 
 -3.448437e-03  -1.385713e-02  0 
 -3.153735e-03  -1.222869e-02  0 
 -3.906900e-03  -1.442660e-02  0 
 -3.477876e-03  -1.152392e-02  0 
 -3.405696e-03  -1.432851e-02  0 
 -2.925910e-03  -1.144151e-02  0 
 -3.499355e-03  -1.337546e-02  0 
 -3.412932e-03  -1.286648e-02  0 
 -2.550438e-03  -1.365867e-02  0 
 -2.250095e-03  -1.174932e-02  0 
 -4.380953e-03  -1.462246e-02  0 
 -3.975422e-03  -1.133584e-02  0 
 -4.080048e-03  -1.269321e-02  0 
 -4.194258e-03  -1.379691e-02  0 
 -4.246621e-03  -1.327438e-02  0 
 -3.904172e-03  -1.203292e-02  0 
 -4.181826e-03  -1.422055e-02  0 
 -4.535802e-03  -1.358511e-02  0 
 -4.490977e-03  -1.291665e-02  0 
 -2.458735e-03  -1.302559e-02  0 
 -2.372759e-03  -1.239845e-02  0 
 -4.694476e-03  -1.471628e-02  0 
 -4.376494e-03  -1.135074e-02  0 
 -2.587607e-03  -1.417586e-02  0 
 -2.152739e-03  -1.124666e-02  0 
VECTORS displacement_ITER10 FLOAT
 -4.678023e-03  -1.081757e-02  0 
 -1.913484e-03  -1.076178e-02  0 
 -5.004564e-03  -1.507688e-02  0 
 -2.309202e-03  -1.449454e-02  0 
 -4.107859e-03  -1.064992e-02  0 
 -3.622968e-03  -1.060707e-02  0 
 -3.173738e-03  -1.060994e-02  0 
 -2.763241e-03  -1.064034e-02  0 
 -2.332906e-03  -1.067130e-02  0 
 -4.722517e-03  -1.171359e-02  0 
 -4.778882e-03  -1.245873e-02  0 
 -4.820929e-03  -1.318057e-02  0 
 -4.867009e-03  -1.384897e-02  0 
 -4.921678e-03  -1.449199e-02  0 
 -2.102329e-03  -1.140486e-02  0 
 -2.186491e-03  -1.197367e-02  0 
 -2.221695e-03  -1.252401e-02  0 
 -2.239183e-03  -1.307404e-02  0 
 -2.263219e-03  -1.370484e-02  0 
 -4.652204e-03  -1.492973e-02  0 
 -4.228718e-03  -1.487093e-02  0 
 -3.772999e-03  -1.481923e-02  0 
 -3.310268e-03  -1.475388e-02  0 
 -2.806103e-03  -1.466970e-02  0 
 -3.088196e-03  -1.302761e-02  0 
 -3.835760e-03  -1.385114e-02  0 
 -3.610915e-03  -1.243833e-02  0 
 -2.938478e-03  -1.351991e-02  0 
 -2.670572e-03  -1.224143e-02  0 
 -4.539626e-03  -1.423706e-02  0 
 -4.382262e-03  -1.210373e-02  0 
 -2.955910e-03  -1.416071e-02  0 
 -2.505934e-03  -1.140908e-02  0 
 -2.682108e-03  -1.282964e-02  0 
 -3.857606e-03  -1.323717e-02  0 
 -3.450851e-03  -1.382301e-02  0 
 -3.156253e-03  -1.223926e-02  0 
 -3.905548e-03  -1.438932e-02  0 
 -3.463157e-03  -1.156604e-02  0 
 -3.412069e-03  -1.428581e-02  0 
 -2.937902e-03  -1.148225e-02  0 
 -3.497288e-03  -1.335598e-02  0 
 -3.410055e-03  -1.285823e-02  0 
 -2.566573e-03  -1.359159e-02  0 
 -2.282926e-03  -1.179234e-02  0 
 -4.374124e-03  -1.459703e-02  0 
 -3.967446e-03  -1.136735e-02  0 
 -4.066431e-03  -1.269879e-02  0 
 -4.184357e-03  -1.377319e-02  0 
 -4.232514e-03  -1.326211e-02  0 
 -3.890786e-03  -1.205325e-02  0 
 -4.173348e-03  -1.419198e-02  0 
 -4.523060e-03  -1.356728e-02  0 
 -4.474842e-03  -1.290778e-02  0 
 -2.479001e-03  -1.297220e-02  0 
 -2.394802e-03  -1.239478e-02  0 
 -4.680265e-03  -1.469490e-02  0 
 -4.387934e-03  -1.137146e-02  0 
 -2.594604e-03  -1.413092e-02  0 
 -2.192178e-03  -1.126492e-02  0 
VECTORS displacement_ITER11 FLOAT
 -4.670098e-03  -1.083873e-02  0 
 -1.973000e-03  -1.075823e-02  0 
 -4.998673e-03  -1.503339e-02  0 
 -2.302814e-03  -1.446114e-02  0 
 -4.078333e-03  -1.063521e-02  0 
 -3.613992e-03  -1.054943e-02  0 
 -3.180944e-03  -1.052959e-02  0 
 -2.743373e-03  -1.055547e-02  0 
 -2.312318e-03  -1.062455e-02  0 
 -4.742549e-03  -1.172629e-02  0 
 -4.820590e-03  -1.246470e-02  0 
 -4.846213e-03  -1.317384e-02  0 
 -4.871092e-03  -1.385493e-02  0 
 -4.934003e-03  -1.449440e-02  0 
 -2.090219e-03  -1.138500e-02  0 
 -2.126431e-03  -1.193672e-02  0 
 -2.173243e-03  -1.252292e-02  0 
 -2.211115e-03  -1.310812e-02  0 
 -2.255478e-03  -1.370750e-02  0 
 -4.651649e-03  -1.494742e-02  0 
 -4.228509e-03  -1.488420e-02  0 
 -3.774044e-03  -1.482892e-02  0 
 -3.292141e-03  -1.477002e-02  0 
 -2.802512e-03  -1.467086e-02  0 
 -3.080791e-03  -1.301941e-02  0 
 -3.840047e-03  -1.385539e-02  0 
 -3.616184e-03  -1.241138e-02  0 
 -2.922769e-03  -1.352819e-02  0 
 -2.656620e-03  -1.221232e-02  0 
 -4.554334e-03  -1.423613e-02  0 
 -4.397412e-03  -1.209008e-02  0 
 -2.935743e-03  -1.417648e-02  0 
 -2.477495e-03  -1.134778e-02  0 
 -2.666418e-03  -1.282684e-02  0 
 -3.866724e-03  -1.323034e-02  0 
 -3.445610e-03  -1.382835e-02  0 
 -3.151866e-03  -1.220776e-02  0 
 -3.906674e-03  -1.440129e-02  0 
 -3.468011e-03  -1.151396e-02  0 
 -3.403645e-03  -1.429466e-02  0 
 -2.930516e-03  -1.143172e-02  0 
 -3.496436e-03  -1.335143e-02  0 
 -3.409549e-03  -1.284239e-02  0 
 -2.539919e-03  -1.361209e-02  0 
 -2.251989e-03  -1.173770e-02  0 
 -4.377240e-03  -1.460686e-02  0 
 -3.965542e-03  -1.133043e-02  0 
 -4.078633e-03  -1.268454e-02  0 
 -4.198917e-03  -1.377521e-02  0 
 -4.248696e-03  -1.326371e-02  0 
 -3.897054e-03  -1.202160e-02  0 
 -4.180842e-03  -1.419903e-02  0 
 -4.538274e-03  -1.357342e-02  0 
 -4.498914e-03  -1.290942e-02  0 
 -2.455264e-03  -1.298803e-02  0 
 -2.366842e-03  -1.237883e-02  0 
 -4.695226e-03  -1.469628e-02  0 
 -4.384456e-03  -1.136583e-02  0 
 -2.577437e-03  -1.412818e-02  0 
 -2.181577e-03  -1.120970e-02  0 
VECTORS displacement_ITER12 FLOAT
 -4.666394e-03  -1.084287e-02  0 
 -1.984566e-03  -1.071259e-02  0 
 -4.996607e-03  -1.503528e-02  0 
 -2.284264e-03  -1.446979e-02  0 
 -4.085997e-03  -1.064496e-02  0 
 -3.612862e-03  -1.055378e-02  0 
 -3.178665e-03  -1.054098e-02  0 
 -2.757763e-03  -1.057348e-02  0 
 -2.335729e-03  -1.063016e-02  0 
 -4.748758e-03  -1.171349e-02  0 
 -4.814029e-03  -1.245977e-02  0 
 -4.840335e-03  -1.315837e-02  0 
 -4.870148e-03  -1.383407e-02  0 
 -4.928566e-03  -1.447487e-02  0 
 -2.114516e-03  -1.137972e-02  0 
 -2.160366e-03  -1.194495e-02  0 
 -2.197452e-03  -1.251234e-02  0 
 -2.225987e-03  -1.308863e-02  0 
 -2.253203e-03  -1.369588e-02  0 
 -4.655815e-03  -1.493292e-02  0 
 -4.228280e-03  -1.486290e-02  0 
 -3.771665e-03  -1.480363e-02  0 
 -3.297078e-03  -1.474232e-02  0 
 -2.805438e-03  -1.465364e-02  0 
 -3.088416e-03  -1.300385e-02  0 
 -3.840348e-03  -1.383666e-02  0 
 -3.616906e-03  -1.240632e-02  0 
 -2.931554e-03  -1.350825e-02  0 
 -2.670895e-03  -1.220219e-02  0 
 -4.550539e-03  -1.421924e-02  0 
 -4.394863e-03  -1.208806e-02  0 
 -2.944601e-03  -1.415363e-02  0 
 -2.501302e-03  -1.135054e-02  0 
 -2.678601e-03  -1.281175e-02  0 
 -3.866473e-03  -1.321767e-02  0 
 -3.449630e-03  -1.380870e-02  0 
 -3.156747e-03  -1.220074e-02  0 
 -3.905865e-03  -1.437852e-02  0 
 -3.466233e-03  -1.151637e-02  0 
 -3.407070e-03  -1.427278e-02  0 
 -2.936961e-03  -1.143142e-02  0 
 -3.499879e-03  -1.333576e-02  0 
 -3.413195e-03  -1.283125e-02  0 
 -2.550568e-03  -1.358902e-02  0 
 -2.281937e-03  -1.174033e-02  0 
 -4.376564e-03  -1.458715e-02  0 
 -3.967997e-03  -1.133453e-02  0 
 -4.078011e-03  -1.267687e-02  0 
 -4.196332e-03  -1.375848e-02  0 
 -4.247207e-03  -1.324993e-02  0 
 -3.897678e-03  -1.202138e-02  0 
 -4.179336e-03  -1.417923e-02  0 
 -4.535696e-03  -1.355510e-02  0 
 -4.496336e-03  -1.289884e-02  0 
 -2.469599e-03  -1.296968e-02  0 
 -2.386562e-03  -1.237068e-02  0 
 -4.691375e-03  -1.468229e-02  0 
 -4.387714e-03  -1.136071e-02  0 
 -2.581575e-03  -1.411164e-02  0 
 -2.212660e-03  -1.120534e-02  0 
VECTORS displacement_ITER13 FLOAT
 -4.664934e-03  -1.083224e-02  0 
 -2.000789e-03  -1.072328e-02  0 
 -4.994393e-03  -1.502991e-02  0 
 -2.265330e-03  -1.446072e-02  0 
 -4.075169e-03  -1.063417e-02  0 
 -3.612576e-03  -1.055130e-02  0 
 -3.178332e-03  -1.053582e-02  0 
 -2.753945e-03  -1.056510e-02  0 
 -2.325731e-03  -1.062168e-02  0 
 -4.746362e-03  -1.170397e-02  0 
 -4.801677e-03  -1.246016e-02  0 
 -4.837632e-03  -1.315695e-02  0 
 -4.872122e-03  -1.382682e-02  0 
 -4.920900e-03  -1.446787e-02  0 
 -2.097579e-03  -1.138188e-02  0 
 -2.147194e-03  -1.194859e-02  0 
 -2.182892e-03  -1.251106e-02  0 
 -2.216264e-03  -1.308463e-02  0 
 -2.247354e-03  -1.370377e-02  0 
 -4.657726e-03  -1.492852e-02  0 
 -4.220575e-03  -1.486253e-02  0 
 -3.764111e-03  -1.480463e-02  0 
 -3.296735e-03  -1.473538e-02  0 
 -2.800095e-03  -1.464502e-02  0 
 -3.082578e-03  -1.300182e-02  0 
 -3.835787e-03  -1.383221e-02  0 
 -3.613790e-03  -1.239929e-02  0 
 -2.923677e-03  -1.350855e-02  0 
 -2.664305e-03  -1.220015e-02  0 
 -4.548850e-03  -1.421613e-02  0 
 -4.387355e-03  -1.208575e-02  0 
 -2.938875e-03  -1.414775e-02  0 
 -2.494995e-03  -1.134467e-02  0 
 -2.670105e-03  -1.281172e-02  0 
 -3.862828e-03  -1.321135e-02  0 
 -3.443255e-03  -1.380702e-02  0 
 -3.153890e-03  -1.219609e-02  0 
 -3.899565e-03  -1.437662e-02  0 
 -3.465199e-03  -1.151064e-02  0 
 -3.400106e-03  -1.427213e-02  0 
 -2.934670e-03  -1.142609e-02  0 
 -3.495090e-03  -1.333183e-02  0 
 -3.409219e-03  -1.282620e-02  0 
 -2.544352e-03  -1.358827e-02  0 
 -2.271836e-03  -1.174031e-02  0 
 -4.374829e-03  -1.458129e-02  0 
 -3.960237e-03  -1.132634e-02  0 
 -4.074364e-03  -1.266977e-02  0 
 -4.193099e-03  -1.375306e-02  0 
 -4.244151e-03  -1.324257e-02  0 
 -3.892509e-03  -1.201416e-02  0 
 -4.176534e-03  -1.417446e-02  0 
 -4.534661e-03  -1.354863e-02  0 
 -4.491536e-03  -1.289268e-02  0 
 -2.459932e-03  -1.296976e-02  0 
 -2.375243e-03  -1.237063e-02  0 
 -4.689864e-03  -1.467612e-02  0 
 -4.381321e-03  -1.135311e-02  0 
 -2.571508e-03  -1.410522e-02  0 
 -2.204489e-03  -1.119476e-02  0 
VECTORS displacement_ITER14 FLOAT