# vtk DataFile Version 3.1
this is an vtk file created by FEMAC
ASCII
DATASET UNSTRUCTURED_GRID
POINTS 58 FLOAT
5.000000 2.000000 0.000000
5.000000 3.000000 0.000000
6.000000 2.000000 0.000000
6.000000 3.000000 0.000000
5.000000 2.166667 0.000000
5.000000 2.333333 0.000000
5.000000 2.500000 0.000000
5.000000 2.666667 0.000000
5.000000 2.833333 0.000000
5.166667 2.000000 0.000000
5.333333 2.000000 0.000000
5.500000 2.000000 0.000000
5.666667 2.000000 0.000000
5.833333 2.000000 0.000000
5.166667 3.000000 0.000000
5.333333 3.000000 0.000000
5.500000 3.000000 0.000000
5.666667 3.000000 0.000000
5.833333 3.000000 0.000000
6.000000 2.166667 0.000000
6.000000 2.333333 0.000000
6.000000 2.500000 0.000000
6.000000 2.666667 0.000000
6.000000 2.833333 0.000000
5.500000 2.501543 0.000000
5.744369 2.706091 0.000000
5.267244 2.683170 0.000000
5.906897 2.744263 0.000000
5.133044 2.759236 0.000000
5.500000 2.353260 0.000000
5.545802 2.692095 0.000000
5.238928 2.538831 0.000000
5.763395 2.543415 0.000000
5.335633 2.448284 0.000000
5.664754 2.449048 0.000000
5.383029 2.607166 0.000000
5.628833 2.572740 0.000000
5.873451 2.598557 0.000000
5.126549 2.598557 0.000000
5.672405 2.880773 0.000000
5.270599 2.855529 0.000000
5.842585 2.427933 0.000000
5.157802 2.427169 0.000000
5.239868 2.118543 0.000000
5.760163 2.118603 0.000000
5.500000 2.193407 0.000000
5.455452 2.867911 0.000000
5.619297 2.126928 0.000000
5.380703 2.126928 0.000000
5.865578 2.233839 0.000000
5.134511 2.233662 0.000000
5.674056 2.273165 0.000000
5.326064 2.272928 0.000000
5.384425 2.741174 0.000000
5.859501 2.860743 0.000000
5.114062 2.889620 0.000000
5.891815 2.103822 0.000000
5.108209 2.103774 0.000000
CELLS 90 360 
3 28  8  7
3 23 27 22
3 24 33 29
3 34 24 29
3 35 24 30
3 35 26 31
3 24 36 30
3 25 36 32
3 36 25 30
3 37 22 27
3 25 37 27
3 7 38 28
3 38 26 28
3 17 39 18
3 40 15 14
3 21 41 20
3 42  6  5
3 35 33 24
3 31 33 35
3 34 36 24
3 34 32 36
3 6 38  7
3 6 42 38
3 31 26 38
3 31 38 42
3 37 21 22
3 41 21 37
3 25 32 37
3 37 32 41
3 26 40 28
3 16 39 17
3 25 39 30
3 16 46 39
3 46 30 39
3 47 11 12
3 44 47 12
3 11 47 45
3 11 48 10
3 48 43 10
3 48 11 45
3 49 19 20
3 4 50  5
3 40 53 46
3 53 40 26
3 53 30 46
3 18 54  3
3 54 23  3
3 8 55  1
3 55 14  1
3 35 53 26
3 35 30 53
3 15 46 16
3 15 40 46
3 41 49 20
3 50 42  5
3 54 18 39
3 54 27 23
3 54 25 27
3 39 25 54
3 14 55 40
3 55 28 40
3 28 55  8
3 44 49 51
3 50 43 52
3 44 12 13
3 10 43  9
3 52 29 33
3 29 52 45
3 48 52 43
3 48 45 52
3 29 51 34
3 51 29 45
3 51 47 44
3 45 47 51
3 42 33 31
3 52 33 42
3 50 52 42
3 34 41 32
3 34 51 41
3 51 49 41
3 56 13  2
3 56 19 49
3 19 56  2
3 57  4  0
3 9 57  0
3 4 57 50
3 56 44 13
3 49 44 56
3 43 57  9
3 43 50 57
CELL_TYPES 90
5 5 5 5 5 5 5 5 5 5 5 5 5 5 5 5 5 5 5 5 5 5 5 5 5 5 5 5 5 5 5 5 5 5 5 5 5 5 5 5 5 5 5 5 5 5 5 5 5 5 5 5 5 5 5 5 5 5 5 5 5 5 5 5 5 5 5 5 5 5 5 5 5 5 5 5 5 5 5 5 5 5 5 5 5 5 5 5 5 5 
POINT_DATA 58
VECTORS displacement_ITER1 FLOAT
 -2.710095e-03  -2.279971e-02  0 
 3.607786e-03  -2.301839e-02  0 
 -3.308606e-03  -2.984110e-02  0 
 3.609166e-03  -2.793644e-02  0 
 -1.632660e-03  -2.212442e-02  0 
 -6.792208e-04  -2.187698e-02  0 
 3.091048e-04  -2.180726e-02  0 
 1.624913e-03  -2.177586e-02  0 
 2.785906e-03  -2.215092e-02  0 
 -3.048773e-03  -2.464277e-02  0 
 -3.209452e-03  -2.567442e-02  0 
 -3.181667e-03  -2.652322e-02  0 
 -3.224639e-03  -2.760266e-02  0 
 -3.167712e-03  -2.859872e-02  0 
 3.832997e-03  -2.357110e-02  0 
 3.964738e-03  -2.444089e-02  0 
 3.812570e-03  -2.542267e-02  0 
 3.752035e-03  -2.642809e-02  0 
 3.655777e-03  -2.743786e-02  0 
 -2.014450e-03  -2.991012e-02  0 
 -9.521691e-04  -2.998877e-02  0 
 1.179643e-04  -2.986540e-02  0 
 1.224173e-03  -2.953047e-02  0 
 2.330560e-03  -2.893536e-02  0 
 4.203831e-04  -2.629929e-02  0 
 1.804758e-03  -2.766320e-02  0 
 1.866806e-03  -2.430424e-02  0 
 1.878051e-03  -2.867220e-02  0 
 2.436268e-03  -2.318045e-02  0 
 -7.566334e-04  -2.644418e-02  0 
 1.860816e-03  -2.637871e-02  0 
 7.449659e-04  -2.406443e-02  0 
 5.783879e-04  -2.817983e-02  0 
 3.235706e-05  -2.499421e-02  0 
 -6.837821e-05  -2.760322e-02  0 
 1.284244e-03  -2.527659e-02  0 
 9.098456e-04  -2.716286e-02  0 
 8.860789e-04  -2.884378e-02  0 
 1.142649e-03  -2.306867e-02  0 
 3.044258e-03  -2.677036e-02  0 
 3.138297e-03  -2.420546e-02  0 
 -2.929485e-04  -2.890071e-02  0 
 -1.028467e-04  -2.333705e-02  0 
 -2.384905e-03  -2.472884e-02  0 
 -2.446143e-03  -2.828489e-02  0 
 -1.994615e-03  -2.656657e-02  0 
 3.106515e-03  -2.545118e-02  0 
 -2.404725e-03  -2.733900e-02  0 
 -2.428522e-03  -2.579271e-02  0 
 -1.634394e-03  -2.906330e-02  0 
 -1.391912e-03  -2.339499e-02  0 
 -1.396596e-03  -2.778184e-02  0 
 -1.308002e-03  -2.510547e-02  0 
 2.277001e-03  -2.516105e-02  0 
 2.812059e-03  -2.792467e-02  0 
 3.304111e-03  -2.319500e-02  0 
 -2.490902e-03  -2.908378e-02  0 
 -2.232536e-03  -2.356040e-02  0 
VECTORS displacement_ITER2 FLOAT
 -2.036223e-03  -1.731602e-02  0 
 2.889389e-03  -1.656332e-02  0 
 -2.420451e-03  -2.208835e-02  0 
 3.004584e-03  -2.094069e-02  0 
 -1.582258e-03  -1.703444e-02  0 
 -4.971562e-04  -1.709449e-02  0 
 4.159844e-04  -1.712301e-02  0 
 1.068636e-03  -1.705326e-02  0 
 1.778707e-03  -1.698462e-02  0 
 -2.072347e-03  -1.826627e-02  0 
 -2.182800e-03  -1.916931e-02  0 
 -2.240205e-03  -1.994787e-02  0 
 -2.345203e-03  -2.075149e-02  0 
 -2.341983e-03  -2.144916e-02  0 
 2.609750e-03  -1.787526e-02  0 
 2.423843e-03  -1.862791e-02  0 
 2.445850e-03  -1.917337e-02  0 
 2.528292e-03  -1.973983e-02  0 
 2.629818e-03  -2.028224e-02  0 
 -1.477416e-03  -2.236050e-02  0 
 -7.201521e-04  -2.239197e-02  0 
 -3.369056e-06  -2.224854e-02  0 
 6.981015e-04  -2.196827e-02  0 
 1.546387e-03  -2.162861e-02  0 
 2.656468e-04  -1.984359e-02  0 
 1.183910e-03  -2.063159e-02  0 
 1.202087e-03  -1.853142e-02  0 
 1.167103e-03  -2.132983e-02  0 
 1.489852e-03  -1.781019e-02  0 
 -5.303143e-04  -1.997190e-02  0 
 1.236749e-03  -1.981207e-02  0 
 5.104560e-04  -1.845584e-02  0 
 3.280520e-04  -2.109750e-02  0 
 3.363406e-05  -1.904382e-02  0 
 -8.744362e-05  -2.072975e-02  0 
 8.422517e-04  -1.916061e-02  0 
 5.839239e-04  -2.038536e-02  0 
 5.101591e-04  -2.153743e-02  0 
 8.075524e-04  -1.779076e-02  0 
 2.057300e-03  -1.993277e-02  0 
 1.948432e-03  -1.853009e-02  0 
 -2.507588e-04  -2.161662e-02  0 
 -4.958592e-06  -1.809600e-02  0 
 -1.672686e-03  -1.862944e-02  0 
 -1.778333e-03  -2.121804e-02  0 
 -1.352604e-03  -1.999885e-02  0 
 2.008858e-03  -1.920474e-02  0 
 -1.695406e-03  -2.054845e-02  0 
 -1.648405e-03  -1.940271e-02  0 
 -1.189043e-03  -2.175620e-02  0 
 -1.102375e-03  -1.803777e-02  0 
 -9.769107e-04  -2.085131e-02  0 
 -9.066658e-04  -1.911191e-02  0 
 1.483307e-03  -1.906117e-02  0 
 1.922271e-03  -2.063001e-02  0 
 2.071411e-03  -1.768280e-02  0 
 -1.861437e-03  -2.175411e-02  0 
 -1.771050e-03  -1.782766e-02  0 
VECTORS displacement_ITER3 FLOAT
 -2.571901e-03  -1.545879e-02  0 
 1.868915e-03  -1.520082e-02  0 
 -2.254310e-03  -1.924881e-02  0 
 1.753431e-03  -1.877959e-02  0 
 -1.449396e-03  -1.556943e-02  0 
 -8.245155e-04  -1.554836e-02  0 
 -5.612954e-05  -1.556977e-02  0 
 5.263995e-04  -1.555613e-02  0 
 1.242331e-03  -1.554061e-02  0 
 -2.044416e-03  -1.651189e-02  0 
 -2.167462e-03  -1.705326e-02  0 
 -2.283982e-03  -1.765880e-02  0 
 -2.377142e-03  -1.827894e-02  0 
 -2.351499e-03  -1.884872e-02  0 
 1.594410e-03  -1.581297e-02  0 
 1.593653e-03  -1.657177e-02  0 
 1.958453e-03  -1.730543e-02  0 
 1.783467e-03  -1.771281e-02  0 
 1.681333e-03  -1.819029e-02  0 
 -1.556475e-03  -1.971431e-02  0 
 -9.297632e-04  -1.983555e-02  0 
 -3.406437e-04  -1.979595e-02  0 
 2.158911e-04  -1.961469e-02  0 
 8.492617e-04  -1.932255e-02  0 
 -2.008387e-04  -1.780286e-02  0 
 5.678256e-04  -1.858599e-02  0 
 6.368268e-04  -1.669310e-02  0 
 5.744841e-04  -1.913063e-02  0 
 9.311576e-04  -1.613344e-02  0 
 -8.489020e-04  -1.785884e-02  0 
 5.682075e-04  -1.777252e-02  0 
 2.609273e-05  -1.666403e-02  0 
 -1.254479e-04  -1.886430e-02  0 
 -3.866728e-04  -1.713513e-02  0 
 -4.752125e-04  -1.851250e-02  0 
 2.859356e-04  -1.722961e-02  0 
 4.441247e-05  -1.826378e-02  0 
 5.311129e-05  -1.925853e-02  0 
 2.990194e-04  -1.612545e-02  0 
 1.351321e-03  -1.802937e-02  0 
 1.204320e-03  -1.650790e-02  0 
 -5.762270e-04  -1.924052e-02  0 
 -4.228903e-04  -1.636085e-02  0 
 -1.786911e-03  -1.676456e-02  0 
 -1.864549e-03  -1.874480e-02  0 
 -1.524532e-03  -1.779847e-02  0 
 1.276254e-03  -1.715320e-02  0 
 -1.812755e-03  -1.820214e-02  0 
 -1.770610e-03  -1.729149e-02  0 
 -1.342871e-03  -1.926298e-02  0 
 -1.272841e-03  -1.629164e-02  0 
 -1.196444e-03  -1.853229e-02  0 
 -1.164592e-03  -1.713863e-02  0 
 8.099440e-04  -1.705824e-02  0 
 1.141519e-03  -1.861798e-02  0 
 1.375225e-03  -1.590834e-02  0 
 -1.910434e-03  -1.918842e-02  0 
 -1.799967e-03  -1.633011e-02  0 
VECTORS displacement_ITER4 FLOAT
 -2.267957e-03  -1.493380e-02  0 
 1.387829e-03  -1.481119e-02  0 
 -2.344446e-03  -1.816127e-02  0 
 1.525695e-03  -1.758174e-02  0 
 -1.573875e-03  -1.474317e-02  0 
 -9.817328e-04  -1.471677e-02  0 
 -4.013813e-04  -1.469527e-02  0 
 1.823768e-04  -1.465952e-02  0 
 8.315669e-04  -1.471529e-02  0 
 -2.155814e-03  -1.563264e-02  0 
 -2.193756e-03  -1.619820e-02  0 
 -2.249500e-03  -1.684026e-02  0 
 -2.222996e-03  -1.723545e-02  0 
 -2.297747e-03  -1.775395e-02  0 
 1.407696e-03  -1.535370e-02  0 
 1.345594e-03  -1.576540e-02  0 
 1.245229e-03  -1.633631e-02  0 
 1.319528e-03  -1.683769e-02  0 
 1.428074e-03  -1.731367e-02  0 
 -1.581691e-03  -1.855247e-02  0 
 -1.025355e-03  -1.868505e-02  0 
 -5.357507e-04  -1.867446e-02  0 
 -1.849933e-05  -1.853278e-02  0 
 5.795970e-04  -1.823827e-02  0 
 -4.028962e-04  -1.689653e-02  0 
 3.029011e-04  -1.753420e-02  0 
 3.247399e-04  -1.590481e-02  0 
 3.240977e-04  -1.807723e-02  0 
 6.011998e-04  -1.532241e-02  0 
 -1.010571e-03  -1.693332e-02  0 
 3.378827e-04  -1.690391e-02  0 
 -2.478333e-04  -1.580519e-02  0 
 -3.278464e-04  -1.784991e-02  0 
 -6.074743e-04  -1.625140e-02  0 
 -6.496117e-04  -1.754330e-02  0 
 3.437302e-05  -1.639581e-02  0 
 -1.521479e-04  -1.732440e-02  0 
 -1.810860e-04  -1.819075e-02  0 
 -3.426681e-05  -1.528891e-02  0 
 9.573489e-04  -1.699571e-02  0 
 9.660182e-04  -1.581342e-02  0 
 -7.401475e-04  -1.819313e-02  0 
 -6.670286e-04  -1.547032e-02  0 
 -1.846474e-03  -1.591475e-02  0 
 -1.874765e-03  -1.764485e-02  0 
 -1.613138e-03  -1.689648e-02  0 
 9.310679e-04  -1.640447e-02  0 
 -1.859403e-03  -1.725610e-02  0 
 -1.817056e-03  -1.644069e-02  0 
 -1.406215e-03  -1.814516e-02  0 
 -1.387104e-03  -1.543381e-02  0 
 -1.322568e-03  -1.754568e-02  0 
 -1.297106e-03  -1.625643e-02  0 
 5.355183e-04  -1.632127e-02  0 
 8.806768e-04  -1.759118e-02  0 
 1.071111e-03  -1.522279e-02  0 
 -1.925026e-03  -1.803267e-02  0 
 -1.876523e-03  -1.540062e-02  0 
VECTORS displacement_ITER5 FLOAT
 -2.330733e-03  -1.490311e-02  0 
 1.212132e-03  -1.453163e-02  0 
 -2.196594e-03  -1.795837e-02  0 
 1.072667e-03  -1.738430e-02  0 
 -1.660764e-03  -1.453602e-02  0 
 -1.039735e-03  -1.448264e-02  0 
 -4.745206e-04  -1.444953e-02  0 
 6.574902e-05  -1.444003e-02  0 
 5.865732e-04  -1.441789e-02  0 
 -2.297286e-03  -1.543091e-02  0 
 -2.275866e-03  -1.594773e-02  0 
 -2.254125e-03  -1.644761e-02  0 
 -2.249841e-03  -1.694276e-02  0 
 -2.246028e-03  -1.744138e-02  0 
 1.105103e-03  -1.499129e-02  0 
 1.187360e-03  -1.554145e-02  0 
 1.214528e-03  -1.600791e-02  0 
 1.117739e-03  -1.645908e-02  0 
 1.049749e-03  -1.688790e-02  0 
 -1.585297e-03  -1.822351e-02  0 
 -1.103429e-03  -1.834013e-02  0 
 -6.658986e-04  -1.832715e-02  0 
 -2.231948e-04  -1.816747e-02  0 
 2.995667e-04  -1.789093e-02  0 
 -5.474585e-04  -1.664918e-02  0 
 9.545643e-05  -1.729669e-02  0 
 1.709704e-04  -1.558957e-02  0 
 8.171727e-05  -1.775105e-02  0 
 4.119069e-04  -1.502318e-02  0 
 -1.111737e-03  -1.670669e-02  0 
 1.477283e-04  -1.664079e-02  0 
 -3.566779e-04  -1.554806e-02  0 
 -4.798461e-04  -1.757985e-02  0 
 -7.160708e-04  -1.601816e-02  0 
 -7.774375e-04  -1.728834e-02  0 
 -1.223142e-04  -1.611274e-02  0 
 -3.207005e-04  -1.707456e-02  0 
 -3.466450e-04  -1.789019e-02  0 
 -1.338988e-04  -1.502690e-02  0 
 7.517267e-04  -1.673766e-02  0 
 7.591708e-04  -1.547897e-02  0 
 -8.492059e-04  -1.789607e-02  0 
 -7.512677e-04  -1.523374e-02  0 
 -1.962100e-03  -1.572074e-02  0 
 -1.857406e-03  -1.738368e-02  0 
 -1.682283e-03  -1.664707e-02  0 
 7.862598e-04  -1.607816e-02  0 
 -1.862634e-03  -1.695450e-02  0 
 -1.914455e-03  -1.620171e-02  0 
 -1.435556e-03  -1.786412e-02  0 
 -1.477193e-03  -1.522867e-02  0 
 -1.373341e-03  -1.728541e-02  0 
 -1.398471e-03  -1.604593e-02  0 
 3.659188e-04  -1.599034e-02  0 
 5.609029e-04  -1.728908e-02  0 
 8.548148e-04  -1.495075e-02  0 
 -1.862864e-03  -1.777853e-02  0 
 -2.004609e-03  -1.520947e-02  0 
VECTORS displacement_ITER6 FLOAT
 -2.323312e-03  -1.461188e-02  0 
 1.110061e-03  -1.436345e-02  0 
 -2.326975e-03  -1.773057e-02  0 
 9.900994e-04  -1.716768e-02  0 
 -1.608533e-03  -1.447469e-02  0 
 -1.095812e-03  -1.436061e-02  0 
 -5.798661e-04  -1.433519e-02  0 
 -4.137238e-05  -1.435904e-02  0 
 5.246451e-04  -1.434831e-02  0 
 -2.294162e-03  -1.535628e-02  0 
 -2.292394e-03  -1.583740e-02  0 
 -2.280638e-03  -1.628431e-02  0 
 -2.328653e-03  -1.683951e-02  0 
 -2.311723e-03  -1.731265e-02  0 
 1.023098e-03  -1.490307e-02  0 
 9.764062e-04  -1.538632e-02  0 
 9.258495e-04  -1.577485e-02  0 
 9.447561e-04  -1.622354e-02  0 
 9.607122e-04  -1.664362e-02  0 
 -1.679582e-03  -1.803466e-02  0 
 -1.197576e-03  -1.813263e-02  0 
 -7.698291e-04  -1.808013e-02  0 
 -3.453038e-04  -1.790685e-02  0 
 1.712160e-04  -1.764809e-02  0 
 -6.118810e-04  -1.647107e-02  0 
 -2.790022e-05  -1.703923e-02  0 
 8.005730e-05  -1.548177e-02  0 
 -4.770681e-05  -1.749537e-02  0 
 3.138696e-04  -1.494609e-02  0 
 -1.161891e-03  -1.652723e-02  0 
 5.488727e-05  -1.643491e-02  0 
 -4.324613e-04  -1.541612e-02  0 
 -5.707729e-04  -1.735220e-02  0 
 -7.780053e-04  -1.586162e-02  0 
 -8.453779e-04  -1.708662e-02  0 
 -1.959919e-04  -1.596347e-02  0 
 -4.033545e-04  -1.686791e-02  0 
 -4.578044e-04  -1.764184e-02  0 
 -2.284042e-04  -1.492497e-02  0 
 5.937236e-04  -1.644670e-02  0 
 6.338079e-04  -1.539267e-02  0 
 -9.299316e-04  -1.767609e-02  0 
 -8.229430e-04  -1.509072e-02  0 
 -1.956023e-03  -1.558749e-02  0 
 -1.937171e-03  -1.723587e-02  0 
 -1.724222e-03  -1.648025e-02  0 
 6.278257e-04  -1.590102e-02  0 
 -1.910723e-03  -1.679243e-02  0 
 -1.939890e-03  -1.605539e-02  0 
 -1.523721e-03  -1.767312e-02  0 
 -1.491014e-03  -1.507863e-02  0 
 -1.432883e-03  -1.709883e-02  0 
 -1.433239e-03  -1.587861e-02  0 
 2.635675e-04  -1.585296e-02  0 
 4.252117e-04  -1.703114e-02  0 
 7.457712e-04  -1.483865e-02  0 
 -1.968231e-03  -1.758774e-02  0 
 -1.937213e-03  -1.508676e-02  0 
VECTORS displacement_ITER7 FLOAT
 -2.225212e-03  -1.455959e-02  0 
 9.833101e-04  -1.428551e-02  0 
 -2.389698e-03  -1.766964e-02  0 
 9.440306e-04  -1.702608e-02  0 
 -1.635800e-03  -1.432556e-02  0 
 -1.131778e-03  -1.422406e-02  0 
 -6.290471e-04  -1.419697e-02  0 
 -6.859336e-05  -1.420972e-02  0 
 4.809649e-04  -1.424995e-02  0 
 -2.284357e-03  -1.518907e-02  0 
 -2.319254e-03  -1.575925e-02  0 
 -2.328624e-03  -1.628954e-02  0 
 -2.322109e-03  -1.675397e-02  0 
 -2.335431e-03  -1.723927e-02  0 
 9.361431e-04  -1.478313e-02  0 
 9.538683e-04  -1.525777e-02  0 
 9.839733e-04  -1.571629e-02  0 
 9.486778e-04  -1.615929e-02  0 
 9.354039e-04  -1.657901e-02  0 
 -1.713206e-03  -1.795372e-02  0 
 -1.230738e-03  -1.805337e-02  0 
 -7.942885e-04  -1.801434e-02  0 
 -3.509613e-04  -1.784197e-02  0 
 1.661477e-04  -1.755655e-02  0 
 -6.407630e-04  -1.636204e-02  0 
 -3.497552e-05  -1.696466e-02  0 
 5.132299e-05  -1.535493e-02  0 
 -4.691060e-05  -1.742476e-02  0 
 2.923878e-04  -1.481097e-02  0 
 -1.187033e-03  -1.642217e-02  0 
 2.405219e-05  -1.633162e-02  0 
 -4.645922e-04  -1.529095e-02  0 
 -5.944304e-04  -1.726399e-02  0 
 -8.070016e-04  -1.574152e-02  0 
 -8.747563e-04  -1.698981e-02  0 
 -2.270913e-04  -1.584473e-02  0 
 -4.307645e-04  -1.676589e-02  0 
 -4.715358e-04  -1.756656e-02  0 
 -2.637934e-04  -1.479655e-02  0 
 5.971851e-04  -1.640124e-02  0 
 6.012180e-04  -1.524172e-02  0 
 -9.651758e-04  -1.759530e-02  0 
 -8.576031e-04  -1.495947e-02  0 
 -1.955991e-03  -1.544774e-02  0 
 -1.969743e-03  -1.714765e-02  0 
 -1.748001e-03  -1.640068e-02  0 
 6.116513e-04  -1.578668e-02  0 
 -1.955338e-03  -1.674101e-02  0 
 -1.949276e-03  -1.596715e-02  0 
 -1.558636e-03  -1.758743e-02  0 
 -1.510724e-03  -1.493871e-02  0 
 -1.473521e-03  -1.701988e-02  0 
 -1.446690e-03  -1.575911e-02  0 
 2.313763e-04  -1.572519e-02  0 
 4.305300e-04  -1.696418e-02  0 
 6.871967e-04  -1.471228e-02  0 
 -2.004225e-03  -1.749900e-02  0 
 -1.947905e-03  -1.492248e-02  0 
VECTORS displacement_ITER8 FLOAT
 -2.253624e-03  -1.459605e-02  0 
 9.688722e-04  -1.419844e-02  0 
 -2.330971e-03  -1.773881e-02  0 
 9.180162e-04  -1.696713e-02  0 
 -1.646057e-03  -1.430016e-02  0 
 -1.104489e-03  -1.421256e-02  0 
 -5.810173e-04  -1.416536e-02  0 
 -5.034958e-05  -1.415777e-02  0 
 4.670233e-04  -1.419195e-02  0 
 -2.293523e-03  -1.518564e-02  0 
 -2.310518e-03  -1.577975e-02  0 
 -2.325087e-03  -1.631238e-02  0 
 -2.303973e-03  -1.675481e-02  0 
 -2.323793e-03  -1.723899e-02  0 
 9.656239e-04  -1.477490e-02  0 
 9.578808e-04  -1.521669e-02  0 
 9.629734e-04  -1.568081e-02  0 
 9.424807e-04  -1.611044e-02  0 
 9.371997e-04  -1.653815e-02  0 
 -1.699029e-03  -1.796631e-02  0 
 -1.229236e-03  -1.804975e-02  0 
 -8.037343e-04  -1.800184e-02  0 
 -3.607462e-04  -1.782151e-02  0 
 1.547622e-04  -1.751929e-02  0 
 -6.342923e-04  -1.635223e-02  0 
 -3.888102e-05  -1.693875e-02  0 
 5.871691e-05  -1.531858e-02  0 
 -5.330406e-05  -1.739926e-02  0 
 2.938581e-04  -1.475635e-02  0 
 -1.180264e-03  -1.642798e-02  0 
 3.120110e-05  -1.630790e-02  0 
 -4.491147e-04  -1.526728e-02  0 
 -5.962364e-04  -1.725468e-02  0 
 -7.937276e-04  -1.573261e-02  0 
 -8.726829e-04  -1.698910e-02  0 
 -2.184352e-04  -1.582191e-02  0 
 -4.274156e-04  -1.675403e-02  0 
 -4.791140e-04  -1.754999e-02  0 
 -2.419287e-04  -1.475366e-02  0 
 5.946514e-04  -1.635513e-02  0 
 6.086299e-04  -1.521408e-02  0 
 -9.666212e-04  -1.759528e-02  0 
 -8.319664e-04  -1.495030e-02  0 
 -1.957138e-03  -1.546508e-02  0 
 -1.949303e-03  -1.715677e-02  0 
 -1.740676e-03  -1.641539e-02  0 
 6.117699e-04  -1.575992e-02  0 
 -1.945691e-03  -1.675531e-02  0 
 -1.945268e-03  -1.598239e-02  0 
 -1.543908e-03  -1.760142e-02  0 
 -1.500568e-03  -1.494722e-02  0 
 -1.465223e-03  -1.703259e-02  0 
 -1.437907e-03  -1.577042e-02  0 
 2.392927e-04  -1.570036e-02  0 
 4.245327e-04  -1.693433e-02  0 
 6.760612e-04  -1.465986e-02  0 
 -1.969011e-03  -1.753237e-02  0 
 -1.969491e-03  -1.492946e-02  0 
VECTORS displacement_ITER9 FLOAT
 -2.301457e-03  -1.448643e-02  0 
 9.278130e-04  -1.425046e-02  0 
 -2.335872e-03  -1.773255e-02  0 
 9.084329e-04  -1.697997e-02  0 
 -1.658869e-03  -1.429279e-02  0 
 -1.145269e-03  -1.417643e-02  0 
 -6.294250e-04  -1.412677e-02  0 
 -9.902304e-05  -1.413100e-02  0 
 4.380342e-04  -1.418103e-02  0 
 -2.310366e-03  -1.522947e-02  0 
 -2.320551e-03  -1.574956e-02  0 
 -2.339648e-03  -1.622925e-02  0 
 -2.366523e-03  -1.675535e-02  0 
 -2.365265e-03  -1.724761e-02  0 
 9.439266e-04  -1.479451e-02  0 
 9.346414e-04  -1.522580e-02  0 
 9.169128e-04  -1.566169e-02  0 
 9.185749e-04  -1.610513e-02  0 
 9.252283e-04  -1.655668e-02  0 
 -1.734609e-03  -1.797422e-02  0 
 -1.255742e-03  -1.805289e-02  0 
 -8.235019e-04  -1.799598e-02  0 
 -3.803431e-04  -1.781960e-02  0 
 1.372831e-04  -1.752551e-02  0 
 -6.607265e-04  -1.634090e-02  0 
 -6.370682e-05  -1.693104e-02  0 
 3.078558e-05  -1.531234e-02  0 
 -7.395288e-05  -1.739931e-02  0 
 2.631761e-04  -1.475285e-02  0 
 -1.209672e-03  -1.640717e-02  0 
 9.904941e-06  -1.630472e-02  0 
 -4.860226e-04  -1.524699e-02  0 
 -6.172144e-04  -1.724775e-02  0 
 -8.289288e-04  -1.571213e-02  0 
 -8.948873e-04  -1.697856e-02  0 
 -2.453849e-04  -1.581423e-02  0 
 -4.494753e-04  -1.674836e-02  0 
 -5.009974e-04  -1.754366e-02  0 
 -2.830457e-04  -1.473035e-02  0 
 5.660701e-04  -1.634232e-02  0 
 5.887093e-04  -1.522180e-02  0 
 -9.846480e-04  -1.758676e-02  0 
 -8.750840e-04  -1.491853e-02  0 
 -1.988629e-03  -1.545468e-02  0 
 -1.980243e-03  -1.716063e-02  0 
 -1.770654e-03  -1.637789e-02  0 
 5.891772e-04  -1.575915e-02  0 
 -1.964868e-03  -1.671541e-02  0 
 -1.979998e-03  -1.594331e-02  0 
 -1.572574e-03  -1.760409e-02  0 
 -1.533711e-03  -1.492004e-02  0 
 -1.483975e-03  -1.701119e-02  0 
 -1.478168e-03  -1.574072e-02  0 
 2.174978e-04  -1.570011e-02  0 
 4.044820e-04  -1.693933e-02  0 
 6.568140e-04  -1.466748e-02  0 
 -2.000975e-03  -1.754818e-02  0 
 -1.970181e-03  -1.492673e-02  0 
VECTORS displacement_ITER10 FLOAT
 -2.266776e-03  -1.451751e-02  0 
 9.428630e-04  -1.423355e-02  0 
 -2.316339e-03  -1.776014e-02  0 
 8.929959e-04  -1.699155e-02  0 
 -1.687418e-03  -1.424990e-02  0 
 -1.136098e-03  -1.415833e-02  0 
 -6.080574e-04  -1.412245e-02  0 
 -8.188534e-05  -1.413091e-02  0 
 4.304799e-04  -1.415955e-02  0 
 -2.301939e-03  -1.518408e-02  0 
 -2.328029e-03  -1.574498e-02  0 
 -2.343832e-03  -1.626074e-02  0 
 -2.338142e-03  -1.673895e-02  0 
 -2.335344e-03  -1.723667e-02  0 
 9.424594e-04  -1.477959e-02  0 
 9.301097e-04  -1.524087e-02  0 
 9.220966e-04  -1.567071e-02  0 
 9.241204e-04  -1.610181e-02  0 
 9.142926e-04  -1.654222e-02  0 
 -1.710265e-03  -1.796967e-02  0 
 -1.242110e-03  -1.804826e-02  0 
 -8.176504e-04  -1.799491e-02  0 
 -3.788644e-04  -1.781563e-02  0 
 1.340152e-04  -1.752233e-02  0 
 -6.515325e-04  -1.634295e-02  0 
 -6.017490e-05  -1.693548e-02  0 
 3.611596e-05  -1.530565e-02  0 
 -7.459905e-05  -1.739696e-02  0 
 2.618199e-04  -1.474291e-02  0 
 -1.197654e-03  -1.641411e-02  0 
 1.598595e-05  -1.630528e-02  0 
 -4.711875e-04  -1.524567e-02  0 
 -6.108558e-04  -1.725147e-02  0 
 -8.145279e-04  -1.571362e-02  0 
 -8.865489e-04  -1.698415e-02  0 
 -2.371342e-04  -1.581101e-02  0 
 -4.427762e-04  -1.675176e-02  0 
 -4.961072e-04  -1.754515e-02  0 
 -2.663483e-04  -1.472731e-02  0 
 5.706733e-04  -1.634374e-02  0 
 5.862525e-04  -1.522265e-02  0 
 -9.775218e-04  -1.759120e-02  0 
 -8.572925e-04  -1.491779e-02  0 
 -1.986113e-03  -1.543252e-02  0 
 -1.958886e-03  -1.715781e-02  0 
 -1.760158e-03  -1.638868e-02  0 
 5.933508e-04  -1.576189e-02  0 
 -1.958173e-03  -1.672934e-02  0 
 -1.971752e-03  -1.594693e-02  0 
 -1.553946e-03  -1.760458e-02  0 
 -1.534155e-03  -1.490890e-02  0 
 -1.473919e-03  -1.702269e-02  0 
 -1.465642e-03  -1.574300e-02  0 
 2.221776e-04  -1.569727e-02  0 
 3.978952e-04  -1.693720e-02  0 
 6.578093e-04  -1.466026e-02  0 
 -1.971386e-03  -1.754495e-02  0 
 -1.987682e-03  -1.489108e-02  0 
VECTORS displacement_ITER11 FLOAT
 -2.258123e-03  -1.448380e-02  0 
 9.536771e-04  -1.424996e-02  0 
 -2.326962e-03  -1.774384e-02  0 
 9.122733e-04  -1.699225e-02  0 
 -1.681166e-03  -1.424330e-02  0 
 -1.129047e-03  -1.414545e-02  0 
 -6.017437e-04  -1.410935e-02  0 
 -7.101796e-05  -1.410987e-02  0 
 4.473717e-04  -1.415229e-02  0 
 -2.295357e-03  -1.517808e-02  0 
 -2.326193e-03  -1.572515e-02  0 
 -2.341239e-03  -1.624250e-02  0 
 -2.340199e-03  -1.673310e-02  0 
 -2.332258e-03  -1.722961e-02  0 
 9.519009e-04  -1.477174e-02  0 
 9.532642e-04  -1.523464e-02  0 
 9.513923e-04  -1.567947e-02  0 
 9.516122e-04  -1.611981e-02  0 
 9.342667e-04  -1.656116e-02  0 
 -1.705244e-03  -1.796529e-02  0 
 -1.231884e-03  -1.805067e-02  0 
 -7.999606e-04  -1.800203e-02  0 
 -3.554523e-04  -1.782640e-02  0 
 1.591884e-04  -1.753098e-02  0 
 -6.410756e-04  -1.633623e-02  0 
 -3.916641e-05  -1.694234e-02  0 
 4.969297e-05  -1.529836e-02  0 
 -4.989864e-05  -1.740724e-02  0 
 2.799234e-04  -1.473331e-02  0 
 -1.190671e-03  -1.640311e-02  0 
 3.047389e-05  -1.630569e-02  0 
 -4.635064e-04  -1.523421e-02  0 
 -5.953311e-04  -1.725176e-02  0 
 -8.073383e-04  -1.570213e-02  0 
 -8.753858e-04  -1.697886e-02  0 
 -2.258249e-04  -1.580502e-02  0 
 -4.289972e-04  -1.674932e-02  0 
 -4.763592e-04  -1.755072e-02  0 
 -2.586931e-04  -1.471426e-02  0 
 5.938883e-04  -1.635998e-02  0 
 6.054887e-04  -1.521196e-02  0 
 -9.649424e-04  -1.758977e-02  0 
 -8.511037e-04  -1.490414e-02  0 
 -1.981082e-03  -1.541681e-02  0 
 -1.958250e-03  -1.715090e-02  0 
 -1.755004e-03  -1.637482e-02  0 
 6.128721e-04  -1.576214e-02  0 
 -1.954320e-03  -1.671774e-02  0 
 -1.967344e-03  -1.593062e-02  0 
 -1.549520e-03  -1.759889e-02  0 
 -1.529204e-03  -1.489484e-02  0 
 -1.467592e-03  -1.701287e-02  0 
 -1.460586e-03  -1.572869e-02  0 
 2.368078e-04  -1.569281e-02  0 
 4.243267e-04  -1.695041e-02  0 
 6.772500e-04  -1.465631e-02  0 
 -1.972765e-03  -1.753250e-02  0 
 -1.975765e-03  -1.487665e-02  0 
VECTORS displacement_ITER12 FLOAT
 -2.273205e-03  -1.445550e-02  0 
 9.561030e-04  -1.426590e-02  0 
 -2.329152e-03  -1.771745e-02  0 
 9.355223e-04  -1.699504e-02  0 
 -1.676142e-03  -1.426072e-02  0 
 -1.126299e-03  -1.416512e-02  0 
 -6.028065e-04  -1.412425e-02  0 
 -6.995915e-05  -1.411893e-02  0 
 4.560323e-04  -1.416343e-02  0 
 -2.287375e-03  -1.516867e-02  0 
 -2.309569e-03  -1.571716e-02  0 
 -2.326318e-03  -1.622991e-02  0 
 -2.335470e-03  -1.673262e-02  0 
 -2.333100e-03  -1.721919e-02  0 
 9.620894e-04  -1.479503e-02  0 
 9.587243e-04  -1.524447e-02  0 
 9.502340e-04  -1.568692e-02  0 
 9.532851e-04  -1.612939e-02  0 
 9.459590e-04  -1.656627e-02  0 
 -1.700905e-03  -1.795643e-02  0 
 -1.223065e-03  -1.804493e-02  0 
 -7.891559e-04  -1.799711e-02  0 
 -3.456612e-04  -1.782379e-02  0 
 1.700685e-04  -1.753295e-02  0 
 -6.354076e-04  -1.633642e-02  0 
 -3.070111e-05  -1.694074e-02  0 
 5.282128e-05  -1.531010e-02  0 
 -4.081690e-05  -1.740580e-02  0 
 2.849068e-04  -1.474611e-02  0 
 -1.184852e-03  -1.639790e-02  0 
 3.707099e-05  -1.631047e-02  0 
 -4.630512e-04  -1.524239e-02  0 
 -5.864998e-04  -1.724820e-02  0 
 -8.048814e-04  -1.570481e-02  0 
 -8.674627e-04  -1.697392e-02  0 
 -2.219800e-04  -1.581225e-02  0 
 -4.212499e-04  -1.674867e-02  0 
 -4.669121e-04  -1.754750e-02  0 
 -2.593892e-04  -1.472527e-02  0 
 5.990075e-04  -1.636326e-02  0 
 6.130794e-04  -1.522647e-02  0 
 -9.550997e-04  -1.758300e-02  0 
 -8.510752e-04  -1.491341e-02  0 
 -1.969116e-03  -1.541632e-02  0 
 -1.955881e-03  -1.714037e-02  0 
 -1.746014e-03  -1.636579e-02  0 
 6.172692e-04  -1.577210e-02  0 
 -1.945405e-03  -1.670731e-02  0 
 -1.955870e-03  -1.592381e-02  0 
 -1.544109e-03  -1.758897e-02  0 
 -1.523326e-03  -1.490378e-02  0 
 -1.460184e-03  -1.700177e-02  0 
 -1.454779e-03  -1.572715e-02  0 
 2.420282e-04  -1.570405e-02  0 
 4.350035e-04  -1.694857e-02  0 
 6.838742e-04  -1.466993e-02  0 
 -1.973666e-03  -1.751913e-02  0 
 -1.966219e-03  -1.488027e-02  0 
VECTORS displacement_ITER13 FLOAT
 -2.263920e-03  -1.445772e-02  0 
 9.778536e-04  -1.425606e-02  0 
 -2.319357e-03  -1.771469e-02  0 
 9.357488e-04  -1.699611e-02  0 
 -1.675408e-03  -1.426575e-02  0 
 -1.123752e-03  -1.417272e-02  0 
 -5.939462e-04  -1.413215e-02  0 
 -7.111487e-05  -1.413006e-02  0 
 4.505224e-04  -1.416324e-02  0 
 -2.284231e-03  -1.515756e-02  0 
 -2.303237e-03  -1.571153e-02  0 
 -2.317793e-03  -1.622877e-02  0 
 -2.322683e-03  -1.672636e-02  0 
 -2.323527e-03  -1.722046e-02  0 
 9.666369e-04  -1.479680e-02  0 
 9.590742e-04  -1.524634e-02  0 
 9.575240e-04  -1.568125e-02  0 
 9.524302e-04  -1.611702e-02  0 
 9.446487e-04  -1.655077e-02  0 
 -1.693487e-03  -1.795227e-02  0 
 -1.216405e-03  -1.803761e-02  0 
 -7.854110e-04  -1.798874e-02  0 
 -3.456727e-04  -1.781401e-02  0 
 1.684775e-04  -1.752591e-02  0 
 -6.314014e-04  -1.633453e-02  0 
 -2.983100e-05  -1.693569e-02  0 
 5.439877e-05  -1.530942e-02  0 
 -4.221624e-05  -1.739715e-02  0 
 2.812955e-04  -1.474985e-02  0 
 -1.178300e-03  -1.639654e-02  0 
 3.957251e-05  -1.630739e-02  0 
 -4.591783e-04  -1.524450e-02  0 
 -5.830814e-04  -1.724352e-02  0 
 -7.997799e-04  -1.570551e-02  0 
 -8.625166e-04  -1.697069e-02  0 
 -2.192783e-04  -1.581098e-02  0 
 -4.180374e-04  -1.674570e-02  0 
 -4.647177e-04  -1.754091e-02  0 
 -2.553762e-04  -1.472814e-02  0 
 6.000891e-04  -1.635560e-02  0 
 6.138153e-04  -1.523056e-02  0 
 -9.498365e-04  -1.757758e-02  0 
 -8.452415e-04  -1.491941e-02  0 
 -1.962009e-03  -1.541255e-02  0 
 -1.945143e-03  -1.713656e-02  0 
 -1.737210e-03  -1.636421e-02  0 
 6.201245e-04  -1.576757e-02  0 
 -1.936227e-03  -1.670520e-02  0 
 -1.947224e-03  -1.592176e-02  0 
 -1.535602e-03  -1.758395e-02  0 
 -1.519346e-03  -1.490570e-02  0 
 -1.452377e-03  -1.699904e-02  0 
 -1.447414e-03  -1.572774e-02  0 
 2.451498e-04  -1.570232e-02  0 
 4.319341e-04  -1.693869e-02  0 
 6.850654e-04  -1.467651e-02  0 
 -1.964986e-03  -1.751715e-02  0 
 -1.962474e-03  -1.487558e-02  0 
VECTORS displacement_ITER14 FLOAT
 -2.263042e-03  -1.445275e-02  0 
 9.767420e-04  -1.427281e-02  0 
 -2.322672e-03  -1.770496e-02  0 
 9.387657e-04  -1.698383e-02  0 
 -1.673269e-03  -1.426251e-02  0 
 -1.128114e-03  -1.416836e-02  0 
 -5.976965e-04  -1.412718e-02  0 
 -7.174012e-05  -1.412571e-02  0 
 4.522741e-04  -1.416009e-02  0 
 -2.285774e-03  -1.515085e-02  0 
 -2.305135e-03  -1.570666e-02  0 
 -2.319782e-03  -1.622483e-02  0 
 -2.322750e-03  -1.671677e-02  0 
 -2.326992e-03  -1.721502e-02  0 
 9.678508e-04  -1.478535e-02  0 
 9.604970e-04  -1.523805e-02  0 
 9.557141e-04  -1.568305e-02  0 
 9.506929e-04  -1.611918e-02  0 
 9.464040e-04  -1.655280e-02  0 
 -1.695286e-03  -1.794681e-02  0 
 -1.216248e-03  -1.803267e-02  0 
 -7.845859e-04  -1.798512e-02  0 
 -3.432486e-04  -1.781139e-02  0 
 1.712668e-04  -1.752118e-02  0 
 -6.319354e-04  -1.632980e-02  0 
 -2.801415e-05  -1.693165e-02  0 
 5.355478e-05  -1.530680e-02  0 
 -3.916123e-05  -1.739417e-02  0 
 2.824036e-04  -1.474658e-02  0 
 -1.179299e-03  -1.639048e-02  0 
 3.933102e-05  -1.630428e-02  0 
 -4.610914e-04  -1.524092e-02  0 
 -5.824919e-04  -1.723879e-02  0 
 -8.015010e-04  -1.570075e-02  0 
 -8.626996e-04  -1.696523e-02  0 
 -2.202565e-04  -1.580787e-02  0 
 -4.177573e-04  -1.674091e-02  0 
 -4.633785e-04  -1.753694e-02  0 