# vtk DataFile Version 3.1
this is an vtk file created by FEMAC
ASCII
DATASET UNSTRUCTURED_GRID
POINTS 55 FLOAT
0.000000 2.000000 0.000000
1.000000 2.000000 0.000000
0.000000 3.000000 0.000000
1.000000 3.000000 0.000000
0.166667 2.000000 0.000000
0.333333 2.000000 0.000000
0.500000 2.000000 0.000000
0.666667 2.000000 0.000000
0.833333 2.000000 0.000000
0.166667 3.000000 0.000000
0.333333 3.000000 0.000000
0.500000 3.000000 0.000000
0.666667 3.000000 0.000000
0.833333 3.000000 0.000000
0.000000 2.166667 0.000000
0.000000 2.333333 0.000000
0.000000 2.500000 0.000000
0.000000 2.666667 0.000000
0.000000 2.833333 0.000000
1.000000 2.166667 0.000000
1.000000 2.333333 0.000000
1.000000 2.500000 0.000000
1.000000 2.666667 0.000000
1.000000 2.833333 0.000000
0.357609 2.500972 0.000000
0.617149 2.333924 0.000000
0.608420 2.671256 0.000000
0.265181 2.237812 0.000000
0.261987 2.763565 0.000000
0.869358 2.229328 0.000000
0.867634 2.772183 0.000000
0.144877 2.136291 0.000000
0.143875 2.864141 0.000000
0.797424 2.606308 0.000000
0.799754 2.398220 0.000000
0.631909 2.502327 0.000000
0.210492 2.500364 0.000000
0.438608 2.271310 0.000000
0.432863 2.731403 0.000000
0.571692 2.155380 0.000000
0.473901 2.430220 0.000000
0.567544 2.846644 0.000000
0.470333 2.577248 0.000000
0.134180 2.321109 0.000000
0.133379 2.679340 0.000000
0.311111 2.625482 0.000000
0.313329 2.376965 0.000000
0.763647 2.120638 0.000000
0.761895 2.880458 0.000000
0.719527 2.747256 0.000000
0.345766 2.114399 0.000000
0.343753 2.886536 0.000000
0.724164 2.255786 0.000000
0.893268 2.103326 0.000000
0.892572 2.897195 0.000000
CELLS 84 336 
3 4 31  0
3 31 14  0
3 32  9  2
3 18 32  2
3 34 21 33
3 26 35 33
3 25 40 37
3 40 25 35
3 42 26 38
3 26 42 35
3 27 43 31
3 44 28 32
3 28 45 38
3 46 27 37
3 47  7  8
3 7 47 39
3 12 48 13
3 48 12 41
3 49 26 33
3 30 49 33
3 26 49 41
3 50 27 31
3 28 51 32
3 25 52 34
3 52 29 34
3 52 25 39
3 34 35 25
3 34 33 35
3 40 42 24
3 40 35 42
3 36 46 24
3 45 36 24
3 46 40 24
3 37 40 46
3 42 45 24
3 42 38 45
3 52 47 29
3 39 47 52
3 48 49 30
3 48 41 49
3 20 21 34
3 29 20 34
3 29 19 20
3 6 50  5
3 27 50 37
3 51 11 10
3 28 38 51
3 43 16 15
3 36 16 43
3 27 46 43
3 36 43 46
3 16 44 17
3 16 36 44
3 45 28 44
3 44 36 45
3 39  6  7
3 39 50  6
3 39 25 37
3 37 50 39
3 11 41 12
3 41 11 51
3 41 38 26
3 51 38 41
3 21 22 33
3 22 30 33
3 23 30 22
3 18 17 44
3 32 18 44
3 10  9 51
3 9 32 51
3 15 14 43
3 14 31 43
3 4  5 50
3 31  4 50
3 53  8  1
3 19 53  1
3 8 53 47
3 13 54  3
3 54 23  3
3 54 13 48
3 29 53 19
3 29 47 53
3 54 30 23
3 48 30 54
CELL_TYPES 84
5 5 5 5 5 5 5 5 5 5 5 5 5 5 5 5 5 5 5 5 5 5 5 5 5 5 5 5 5 5 5 5 5 5 5 5 5 5 5 5 5 5 5 5 5 5 5 5 5 5 5 5 5 5 5 5 5 5 5 5 5 5 5 5 5 5 5 5 5 5 5 5 5 5 5 5 5 5 5 5 5 5 5 5 
POINT_DATA 55
VECTORS displacement_ITER1 FLOAT
 3.922576e-21  1.179370e-20  0 
 -1.018157e-04  -4.706718e-04  0 
 5.710946e-21  -1.771868e-22  0 
 -1.343532e-04  -6.110417e-04  0 
 -7.347842e-05  -1.081307e-04  0 
 -1.142429e-04  -1.796533e-04  0 
 -1.381465e-04  -2.440586e-04  0 
 -1.442489e-04  -3.092172e-04  0 
 -1.416433e-04  -3.832784e-04  0 
 4.077363e-05  -8.134704e-05  0 
 5.998455e-05  -1.491836e-04  0 
 6.137321e-05  -2.202750e-04  0 
 3.857224e-05  -3.041238e-04  0 
 -6.141749e-06  -4.161903e-04  0 
 0  0  0 
 0  0  0 
 0  0  0 
 0  0  0 
 0  0  0 
 -9.977805e-05  -4.282233e-04  0 
 -7.230747e-05  -4.043992e-04  0 
 -4.037366e-05  -4.049281e-04  0 
 -1.874306e-05  -4.321461e-04  0 
 -2.291262e-05  -4.810456e-04  0 
 -2.916930e-05  -1.569637e-04  0 
 -5.365274e-05  -2.820589e-04  0 
 -3.665974e-05  -2.953638e-04  0 
 -3.735698e-05  -1.090360e-04  0 
 -9.074579e-08  -9.804226e-05  0 
 -7.890450e-05  -3.863025e-04  0 
 -3.829827e-05  -4.394906e-04  0 
 -2.667727e-05  -5.982206e-05  0 
 7.133523e-06  -4.900308e-05  0 
 -3.896592e-05  -3.696972e-04  0 
 -5.342446e-05  -3.505470e-04  0 
 -4.367264e-05  -2.906377e-04  0 
 -1.715379e-05  -8.437920e-05  0 
 -5.307794e-05  -1.989322e-04  0 
 -1.423032e-05  -1.964100e-04  0 
 -8.806571e-05  -2.672482e-04  0 
 -3.902493e-05  -2.151681e-04  0 
 -3.755490e-06  -2.699588e-04  0 
 -3.449325e-05  -2.173486e-04  0 
 -1.523254e-05  -4.979831e-05  0 
 -3.355735e-06  -4.407819e-05  0 
 -1.863565e-05  -1.294437e-04  0 
 -3.052192e-05  -1.325935e-04  0 
 -9.791000e-05  -3.539867e-04  0 
 -3.540130e-05  -3.957797e-04  0 
 -3.641998e-05  -3.621642e-04  0 
 -8.058221e-05  -1.651393e-04  0 
 2.778256e-05  -1.428997e-04  0 
 -7.080261e-05  -3.305243e-04  0 
 -9.777747e-05  -4.179928e-04  0 
 -6.904842e-05  -5.060426e-04  0 
VECTORS displacement_ITER2 FLOAT
 4.684641e-21  1.331504e-20  0 
 -1.563745e-04  -5.433125e-04  0 
 7.264628e-21  -1.462799e-22  0 
 -1.237336e-04  -6.700150e-04  0 
 -8.054562e-05  -1.133393e-04  0 
 -1.271694e-04  -1.928492e-04  0 
 -1.586664e-04  -2.616006e-04  0 
 -1.724282e-04  -3.310758e-04  0 
 -1.746969e-04  -4.174558e-04  0 
 5.265873e-05  -8.015657e-05  0 
 7.860971e-05  -1.572274e-04  0 
 8.740464e-05  -2.408246e-04  0 
 6.606643e-05  -3.400296e-04  0 
 1.189715e-05  -4.558345e-04  0 
 0  0  0 
 0  0  0 
 0  0  0 
 0  0  0 
 0  0  0 
 -1.218983e-04  -4.799913e-04  0 
 -7.493868e-05  -4.524118e-04  0 
 -3.436151e-05  -4.434682e-04  0 
 -8.029667e-06  -4.657589e-04  0 
 -3.386547e-06  -5.141503e-04  0 
 -2.995269e-05  -1.622982e-04  0 
 -5.846475e-05  -2.975163e-04  0 
 -3.059227e-05  -3.173947e-04  0 
 -4.133697e-05  -1.119525e-04  0 
 4.062256e-06  -9.947470e-05  0 
 -9.203474e-05  -4.205087e-04  0 
 -2.374435e-05  -4.748895e-04  0 
 -2.956415e-05  -6.114403e-05  0 
 1.148279e-05  -4.639245e-05  0 
 -3.034742e-05  -3.993549e-04  0 
 -5.219008e-05  -3.789902e-04  0 
 -4.074448e-05  -3.098122e-04  0 
 -1.811145e-05  -8.533505e-05  0 
 -5.985317e-05  -2.059069e-04  0 
 -9.447006e-06  -2.082645e-04  0 
 -1.030856e-04  -2.813015e-04  0 
 -4.061695e-05  -2.243209e-04  0 
 7.944892e-06  -2.939176e-04  0 
 -3.263782e-05  -2.292195e-04  0 
 -1.653054e-05  -5.004288e-05  0 
 -2.016762e-06  -4.258920e-05  0 
 -1.752779e-05  -1.336665e-04  0 
 -3.327806e-05  -1.354237e-04  0 
 -1.191566e-04  -3.804263e-04  0 
 -2.061148e-05  -4.357187e-04  0 
 -2.582256e-05  -3.932974e-04  0 
 -9.004251e-05  -1.734160e-04  0 
 3.873445e-05  -1.487329e-04  0 
 -8.108806e-05  -3.528512e-04  0 
 -1.233164e-04  -4.560198e-04  0 
 -5.705248e-05  -5.502270e-04  0 
VECTORS displacement_ITER3 FLOAT
 5.107544e-21  1.533760e-20  0 
 -2.011607e-04  -6.785171e-04  0 
 9.135487e-21  -1.612157e-23  0 
 -1.041019e-04  -7.983251e-04  0 
 -9.409806e-05  -1.319753e-04  0 
 -1.497997e-04  -2.287368e-04  0 
 -1.896270e-04  -3.121587e-04  0 
 -2.090091e-04  -3.970892e-04  0 
 -2.162468e-04  -5.027248e-04  0 
 6.314073e-05  -9.329905e-05  0 
 9.536971e-05  -1.840450e-04  0 
 1.103683e-04  -2.803743e-04  0 
 9.244389e-05  -3.935496e-04  0 
 3.785400e-05  -5.300746e-04  0 
 0  0  0 
 0  0  0 
 0  0  0 
 0  0  0 
 0  0  0 
 -1.474925e-04  -5.750844e-04  0 
 -8.703593e-05  -5.294656e-04  0 
 -3.841338e-05  -5.114359e-04  0 
 -3.365015e-06  -5.320123e-04  0 
 5.915566e-06  -5.955908e-04  0 
 -3.119387e-05  -1.867610e-04  0 
 -6.473569e-05  -3.476367e-04  0 
 -2.992784e-05  -3.652398e-04  0 
 -4.648464e-05  -1.293635e-04  0 
 7.565655e-06  -1.142244e-04  0 
 -1.067905e-04  -4.984311e-04  0 
 -2.080332e-05  -5.469448e-04  0 
 -3.379368e-05  -7.032414e-05  0 
 1.479308e-05  -5.342009e-05  0 
 -3.016020e-05  -4.600551e-04  0 
 -5.725781e-05  -4.424605e-04  0 
 -4.241325e-05  -3.587401e-04  0 
 -1.873879e-05  -9.751227e-05  0 
 -6.744551e-05  -2.394141e-04  0 
 -5.665469e-06  -2.385354e-04  0 
 -1.203902e-04  -3.314294e-04  0 
 -4.319716e-05  -2.596431e-04  0 
 1.738229e-05  -3.370595e-04  0 
 -3.324295e-05  -2.640053e-04  0 
 -1.804924e-05  -5.701304e-05  0 
 -9.378864e-07  -4.868984e-05  0 
 -1.667178e-05  -1.530552e-04  0 
 -3.602915e-05  -1.558856e-04  0 
 -1.415705e-04  -4.527575e-04  0 
 -1.188803e-05  -5.010732e-04  0 
 -2.322690e-05  -4.521289e-04  0 
 -1.044028e-04  -2.029600e-04  0 
 4.893767e-05  -1.718803e-04  0 
 -9.272455e-05  -4.155568e-04  0 
 -1.474488e-04  -5.490182e-04  0 
 -5.148370e-05  -6.361340e-04  0 
VECTORS displacement_ITER4 FLOAT
 5.290073e-21  1.608606e-20  0 
 -2.459128e-04  -7.451268e-04  0 
 1.025942e-20  6.671286e-23  0 
 -5.382635e-05  -8.840792e-04  0 
 -9.993683e-05  -1.383277e-04  0 
 -1.615737e-04  -2.399217e-04  0 
 -2.068904e-04  -3.303316e-04  0 
 -2.318042e-04  -4.255525e-04  0 
 -2.485764e-04  -5.438499e-04  0 
 6.997489e-05  -1.046460e-04  0 
 1.091806e-04  -2.011131e-04  0 
 1.306347e-04  -3.018157e-04  0 
 1.203136e-04  -4.223852e-04  0 
 7.570410e-05  -5.784033e-04  0 
 0  0  0 
 0  0  0 
 0  0  0 
 0  0  0 
 0  0  0 
 -1.642674e-04  -6.290600e-04  0 
 -9.483107e-05  -5.764276e-04  0 
 -3.739622e-05  -5.575739e-04  0 
 8.132361e-06  -5.865183e-04  0 
 2.999339e-05  -6.584011e-04  0 
 -3.100365e-05  -1.937147e-04  0 
 -7.031871e-05  -3.683939e-04  0 
 -2.304074e-05  -3.865893e-04  0 
 -5.056827e-05  -1.336460e-04  0 
 1.218707e-05  -1.197241e-04  0 
 -1.181562e-04  -5.378608e-04  0 
 -5.282916e-06  -5.919934e-04  0 
 -3.655505e-05  -7.279716e-05  0 
 1.763492e-05  -5.779403e-05  0 
 -2.580803e-05  -4.945143e-04  0 
 -6.066671e-05  -4.753282e-04  0 
 -4.225945e-05  -3.810409e-04  0 
 -1.858868e-05  -9.950060e-05  0 
 -7.358003e-05  -2.503399e-04  0 
 2.091115e-06  -2.502152e-04  0 
 -1.328447e-04  -3.502109e-04  0 
 -4.510739e-05  -2.722010e-04  0 
 3.304392e-05  -3.571091e-04  0 
 -3.071423e-05  -2.766156e-04  0 
 -1.922730e-05  -5.770066e-05  0 
 2.119600e-07  -4.989143e-05  0 
 -1.398590e-05  -1.582814e-04  0 
 -3.822547e-05  -1.609848e-04  0 
 -1.600974e-04  -4.836825e-04  0 
 9.590256e-06  -5.364724e-04  0 
 -1.119392e-05  -4.823697e-04  0 
 -1.132665e-04  -2.117256e-04  0 
 5.982900e-05  -1.841685e-04  0 
 -1.022400e-04  -4.431812e-04  0 
 -1.700906e-04  -5.919313e-04  0 
 -2.513092e-05  -6.888732e-04  0 
VECTORS displacement_ITER5 FLOAT
 5.336791e-21  1.641383e-20  0 
 -2.909227e-04  -8.125928e-04  0 
 1.104824e-20  1.422899e-22  0 
 -1.990593e-05  -9.521169e-04  0 
 -1.075545e-04  -1.484679e-04  0 
 -1.751001e-04  -2.567710e-04  0 
 -2.254797e-04  -3.529078e-04  0 
 -2.560394e-04  -4.557864e-04  0 
 -2.811408e-04  -5.883054e-04  0 
 7.653950e-05  -1.118020e-04  0 
 1.210238e-04  -2.146790e-04  0 
 1.471949e-04  -3.217787e-04  0 
 1.409927e-04  -4.503896e-04  0 
 1.028840e-04  -6.204749e-04  0 
 0  0  0 
 0  0  0 
 0  0  0 
 0  0  0 
 0  0  0 
 -1.838384e-04  -6.825984e-04  0 
 -1.046104e-04  -6.217490e-04  0 
 -3.911658e-05  -6.008574e-04  0 
 1.360217e-05  -6.323909e-04  0 
 4.502242e-05  -7.113789e-04  0 
 -3.192555e-05  -2.019745e-04  0 
 -7.726571e-05  -3.906401e-04  0 
 -1.920166e-05  -4.080768e-04  0 
 -5.489036e-05  -1.402128e-04  0 
 1.539257e-05  -1.249071e-04  0 
 -1.314321e-04  -5.773713e-04  0 
 3.788226e-06  -6.317658e-04  0 
 -3.944940e-05  -7.693776e-05  0 
 2.008161e-05  -6.054628e-05  0 
 -2.408717e-05  -5.273325e-04  0 
 -6.598888e-05  -5.079700e-04  0 
 -4.386992e-05  -4.036807e-04  0 
 -1.909788e-05  -1.025597e-04  0 
 -8.078352e-05  -2.637520e-04  0 
 6.942266e-06  -2.623386e-04  0 
 -1.468316e-04  -3.717322e-04  0 
 -4.814531e-05  -2.861992e-04  0 
 4.392246e-05  -3.772798e-04  0 
 -3.005085e-05  -2.901716e-04  0 
 -2.043382e-05  -5.954724e-05  0 
 1.013188e-06  -5.114413e-05  0 
 -1.272166e-05  -1.644315e-04  0 
 -4.101227e-05  -1.677123e-04  0 
 -1.795251e-04  -5.168307e-04  0 
 2.437329e-05  -5.690821e-04  0 
 -3.768287e-06  -5.111677e-04  0 
 -1.233224e-04  -2.249164e-04  0 
 6.808579e-05  -1.947425e-04  0 
 -1.133401e-04  -4.723157e-04  0 
 -1.942267e-04  -6.364703e-04  0 
 -7.382765e-06  -7.344165e-04  0 
VECTORS displacement_ITER6 FLOAT
 5.395419e-21  1.680567e-20  0 
 -3.304363e-04  -8.863838e-04  0 
 1.194603e-20  2.397373e-22  0 
 1.797914e-05  -1.027267e-03  0 
 -1.154628e-04  -1.573052e-04  0 
 -1.887818e-04  -2.730344e-04  0 
 -2.443144e-04  -3.762477e-04  0 
 -2.793140e-04  -4.878375e-04  0 
 -3.111304e-04  -6.358309e-04  0 
 8.451252e-05  -1.203090e-04  0 
 1.348795e-04  -2.314147e-04  0 
 1.663673e-04  -3.468056e-04  0 
 1.644177e-04  -4.845629e-04  0 
 1.327032e-04  -6.677002e-04  0 
 0  0  0 
 0  0  0 
 0  0  0 
 0  0  0 
 0  0  0 
 -2.009176e-04  -7.394788e-04  0 
 -1.123650e-04  -6.698203e-04  0 
 -3.922331e-05  -6.467572e-04  0 
 2.042432e-05  -6.798109e-04  0 
 6.216085e-05  -7.680176e-04  0 
 -3.206976e-05  -2.120538e-04  0 
 -8.240871e-05  -4.156849e-04  0 
 -1.419397e-05  -4.330156e-04  0 
 -5.882943e-05  -1.470177e-04  0 
 1.900048e-05  -1.317348e-04  0 
 -1.422379e-04  -6.206150e-04  0 
 1.433191e-05  -6.749902e-04  0 
 -4.237777e-05  -8.057418e-05  0 
 2.290192e-05  -6.401201e-05  0 
 -2.070650e-05  -5.633739e-04  0 
 -6.944768e-05  -5.438718e-04  0 
 -4.395754e-05  -4.292565e-04  0 
 -1.923059e-05  -1.066473e-04  0 
 -8.678775e-05  -2.786111e-04  0 
 1.251289e-05  -2.773382e-04  0 
 -1.593276e-04  -3.953404e-04  0 
 -4.991932e-05  -3.024100e-04  0 
 5.619625e-05  -4.018362e-04  0 
 -2.844762e-05  -3.063118e-04  0 
 -2.156951e-05  -6.155350e-05  0 
 1.986705e-06  -5.312881e-05  0 
 -1.096845e-05  -1.724084e-04  0 
 -4.309945e-05  -1.756123e-04  0 
 -1.963348e-04  -5.535040e-04  0 
 4.117032e-05  -6.064732e-04  0 
 5.094832e-06  -5.438816e-04  0 
 -1.329504e-04  -2.379418e-04  0 
 7.738865e-05  -2.080508e-04  0 
 -1.222932e-04  -5.047871e-04  0 
 -2.146995e-04  -6.857881e-04  0 
 1.242383e-05  -7.844085e-04  0 
VECTORS displacement_ITER7 FLOAT
 5.381917e-21  1.705340e-20  0 
 -3.654875e-04  -9.530572e-04  0 
 1.265219e-20  3.260984e-22  0 
 5.201971e-05  -1.097417e-03  0 
 -1.223895e-04  -1.649727e-04  0 
 -2.008529e-04  -2.873236e-04  0 
 -2.612467e-04  -3.972654e-04  0 
 -3.000263e-04  -5.164718e-04  0 
 -3.376077e-04  -6.767206e-04  0 
 9.069609e-05  -1.279647e-04  0 
 1.462780e-04  -2.451527e-04  0 
 1.823994e-04  -3.672310e-04  0 
 1.844138e-04  -5.134318e-04  0 
 1.586518e-04  -7.094570e-04  0 
 0  0  0 
 0  0  0 
 0  0  0 
 0  0  0 
 0  0  0 
 -2.159962e-04  -7.892745e-04  0 
 -1.187409e-04  -7.119187e-04  0 
 -3.927510e-05  -6.865992e-04  0 
 2.620680e-05  -7.220289e-04  0 
 7.644580e-05  -8.187598e-04  0 
 -3.229013e-05  -2.209676e-04  0 
 -8.692492e-05  -4.377388e-04  0 
 -1.030261e-05  -4.548080e-04  0 
 -6.229194e-05  -1.530252e-04  0 
 2.217024e-05  -1.375261e-04  0 
 -1.516635e-04  -6.584893e-04  0 
 2.279014e-05  -7.135041e-04  0 
 -4.495773e-05  -8.375212e-05  0 
 2.524340e-05  -6.725665e-05  0 
 -1.829648e-05  -5.951396e-04  0 
 -7.233904e-05  -5.754115e-04  0 
 -4.425496e-05  -4.518843e-04  0 
 -1.936213e-05  -1.102590e-04  0 
 -9.202133e-05  -2.917324e-04  0 
 1.718749e-05  -2.901587e-04  0 
 -1.703586e-04  -4.163460e-04  0 
 -5.159107e-05  -3.167566e-04  0 
 6.634888e-05  -4.225200e-04  0 
 -2.724184e-05  -3.205148e-04  0 
 -2.258266e-05  -6.333597e-05  0 
 2.853412e-06  -5.487616e-05  0 
 -9.468374e-06  -1.793440e-04  0 
 -4.497498e-05  -1.826449e-04  0 
 -2.112231e-04  -5.856981e-04  0 
 5.501701e-05  -6.391211e-04  0 
 1.210741e-05  -5.725267e-04  0 
 -1.413703e-04  -2.493458e-04  0 
 8.528497e-05  -2.189725e-04  0 
 -1.301711e-04  -5.333057e-04  0 
 -2.323762e-04  -7.290957e-04  0 
 2.882133e-05  -8.291404e-04  0 
VECTORS displacement_ITER8 FLOAT
 5.361116e-21  1.731239e-20  0 
 -3.926850e-04  -1.007330e-03  0 
 1.326897e-20  4.036318e-22  0 
 7.622302e-05  -1.154631e-03  0 
 -1.274370e-04  -1.714940e-04  0 
 -2.098136e-04  -2.987604e-04  0 
 -2.739785e-04  -4.135860e-04  0 
 -3.159624e-04  -5.383620e-04  0 
 -3.580971e-04  -7.078102e-04  0 
 9.526749e-05  -1.340240e-04  0 
 1.546156e-04  -2.558098e-04  0 
 1.940140e-04  -3.826124e-04  0 
 1.988756e-04  -5.352536e-04  0 
 1.771614e-04  -7.421923e-04  0 
 0  0  0 
 0  0  0 
 0  0  0 
 0  0  0 
 0  0  0 
 -2.274256e-04  -8.278491e-04  0 
 -1.234267e-04  -7.445708e-04  0 
 -3.935467e-05  -7.176726e-04  0 
 3.056466e-05  -7.555587e-04  0 
 8.603223e-05  -8.586261e-04  0 
 -3.269601e-05  -2.283258e-04  0 
 -9.043980e-05  -4.551427e-04  0 
 -7.889323e-06  -4.723202e-04  0 
 -6.502130e-05  -1.580659e-04  0 
 2.445844e-05  -1.422327e-04  0 
 -1.586521e-04  -6.879748e-04  0 
 2.835834e-05  -7.444281e-04  0 
 -4.688909e-05  -8.663984e-05  0 
 2.694996e-05  -6.991937e-05  0 
 -1.687533e-05  -6.203540e-04  0 
 -7.454820e-05  -6.001706e-04  0 
 -4.475093e-05  -4.699558e-04  0 
 -1.960623e-05  -1.133372e-04  0 
 -9.617103e-05  -3.022022e-04  0 
 2.045483e-05  -3.004762e-04  0 
 -1.787945e-04  -4.326089e-04  0 
 -5.308474e-05  -3.283462e-04  0 
 7.346441e-05  -4.386611e-04  0 
 -2.665945e-05  -3.320814e-04  0 
 -2.340390e-05  -6.499052e-05  0 
 3.453790e-06  -5.637242e-05  0 
 -8.515628e-06  -1.850708e-04  0 
 -4.659506e-05  -1.884804e-04  0 
 -2.224211e-04  -6.105301e-04  0 
 6.427465e-05  -6.650299e-04  0 
 1.664430e-05  -5.954561e-04  0 
 -1.477891e-04  -2.585241e-04  0 
 9.110507e-05  -2.275688e-04  0 
 -1.361096e-04  -5.555556e-04  0 
 -2.453422e-04  -7.629711e-04  0 
 3.947116e-05  -8.649599e-04  0 
VECTORS displacement_ITER9 FLOAT
 5.202111e-21  1.707195e-20  0 
 -4.157191e-04  -1.054006e-03  0 
 1.340544e-20  4.508765e-22  0 
 1.012101e-04  -1.204960e-03  0 
 -1.321286e-04  -1.772298e-04  0 
 -2.182256e-04  -3.084241e-04  0 
 -2.856921e-04  -4.269115e-04  0 
 -3.306012e-04  -5.566793e-04  0 
 -3.760204e-04  -7.342219e-04  0 
 1.002330e-04  -1.394351e-04  0 
 1.631676e-04  -2.659574e-04  0 
 2.059614e-04  -3.968131e-04  0 
 2.139915e-04  -5.546419e-04  0 
 1.961314e-04  -7.709695e-04  0 
 0  0  0 
 0  0  0 
 0  0  0 
 0  0  0 
 0  0  0 
 -2.372417e-04  -8.609910e-04  0 
 -1.281874e-04  -7.737432e-04  0 
 -3.970854e-05  -7.457786e-04  0 
 3.538744e-05  -7.856912e-04  0 
 9.642455e-05  -8.943434e-04  0 
 -3.286070e-05  -2.341604e-04  0 
 -9.375499e-05  -4.700952e-04  0 
 -4.906782e-06  -4.872239e-04  0 
 -6.762793e-05  -1.619736e-04  0 
 2.681409e-05  -1.461001e-04  0 
 -1.651968e-04  -7.139906e-04  0 
 3.488452e-05  -7.716395e-04  0 
 -4.871842e-05  -8.895230e-05  0 
 2.873225e-05  -7.199945e-05  0 
 -1.500211e-05  -6.422951e-04  0 
 -7.683738e-05  -6.219439e-04  0 
 -4.496745e-05  -4.853411e-04  0 
 -1.971204e-05  -1.155389e-04  0 
 -1.000986e-04  -3.108841e-04  0 
 2.411097e-05  -3.091117e-04  0 
 -1.866083e-04  -4.462746e-04  0 
 -5.432646e-05  -3.379473e-04  0 
 8.128306e-05  -4.527010e-04  0 
 -2.573836e-05  -3.416178e-04  0 
 -2.415456e-05  -6.607394e-05  0 
 4.083877e-06  -5.739448e-05  0 
 -7.360985e-06  -1.895358e-04  0 
 -4.802691e-05  -1.929963e-04  0 
 -2.324923e-04  -6.321066e-04  0 
 7.461206e-05  -6.876949e-04  0 
 2.200133e-05  -6.153114e-04  0 
 -1.539282e-04  -2.660949e-04  0 
 9.709756e-05  -2.354128e-04  0 
 -1.416527e-04  -5.749645e-04  0 
 -2.565108e-04  -7.922695e-04  0 
 5.137610e-05  -8.962783e-04  0 
VECTORS displacement_ITER10 FLOAT
 4.947829e-21  1.645283e-20  0 
 -4.295578e-04  -1.081478e-03  0 
 1.309682e-20  4.649871e-22  0 
 1.183575e-04  -1.237756e-03  0 
 -1.350987e-04  -1.803691e-04  0 
 -2.233328e-04  -3.144220e-04  0 
 -2.926887e-04  -4.353738e-04  0 
 -3.393146e-04  -5.682291e-04  0 
 -3.867937e-04  -7.505883e-04  0 
 1.031552e-04  -1.428530e-04  0 
 1.684360e-04  -2.722272e-04  0 
 2.136300e-04  -4.058094e-04  0 
 2.239349e-04  -5.667569e-04  0 
 2.091054e-04  -7.889858e-04  0 
 0  0  0 
 0  0  0 
 0  0  0 
 0  0  0 
 0  0  0 
 -2.429746e-04  -8.811055e-04  0 
 -1.310915e-04  -7.910100e-04  0 
 -3.996616e-05  -7.623752e-04  0 
 3.816190e-05  -8.036166e-04  0 
 1.033633e-04  -9.171299e-04  0 
 -3.291757e-05  -2.377449e-04  0 
 -9.569737e-05  -4.792821e-04  0 
 -3.100903e-06  -4.962508e-04  0 
 -6.910394e-05  -1.644240e-04  0 
 2.828558e-05  -1.484424e-04  0 
 -1.690171e-04  -7.297427e-04  0 
 3.882678e-05  -7.882808e-04  0 
 -4.982324e-05  -9.021948e-05  0 
 2.980987e-05  -7.333494e-05  0 
 -1.397955e-05  -6.555985e-04  0 
 -7.821770e-05  -6.350866e-04  0 
 -4.514214e-05  -4.947283e-04  0 
 -1.972392e-05  -1.169001e-04  0 
 -1.023706e-04  -3.162989e-04  0 
 2.639723e-05  -3.142570e-04  0 
 -1.912218e-04  -4.548199e-04  0 
 -5.504784e-05  -3.438672e-04  0 
 8.627998e-05  -4.612146e-04  0 
 -2.516966e-05  -3.474080e-04  0 
 -2.457389e-05  -6.674156e-05  0 
 4.488948e-06  -5.803857e-05  0 
 -6.605523e-06  -1.922279e-04  0 
 -4.883003e-05  -1.958227e-04  0 
 -2.385411e-04  -6.453446e-04  0 
 8.140236e-05  -7.015017e-04  0 
 2.530217e-05  -6.273457e-04  0 
 -1.575118e-04  -2.708571e-04  0 
 1.007808e-04  -2.401459e-04  0 
 -1.449097e-04  -5.868184e-04  0 
 -2.633384e-04  -8.099775e-04  0 
 5.938332e-05  -9.160000e-04  0 
VECTORS displacement_ITER11 FLOAT
 4.677310e-21  1.568351e-20  0 
 -4.358102e-04  -1.092539e-03  0 
 1.258131e-20  4.619820e-22  0 
 1.289386e-04  -1.257368e-03  0 
 -1.362902e-04  -1.817458e-04  0 
 -2.253796e-04  -3.170954e-04  0 
 -2.955240e-04  -4.392739e-04  0 
 -3.428820e-04  -5.731704e-04  0 
 -3.917417e-04  -7.574387e-04  0 
 1.045497e-04  -1.445083e-04  0 
 1.712004e-04  -2.751473e-04  0 
 2.177524e-04  -4.103325e-04  0 
 2.293954e-04  -5.733759e-04  0 
 2.167885e-04  -7.992337e-04  0 
 0  0  0 
 0  0  0 
 0  0  0 
 0  0  0 
 0  0  0 
 -2.458324e-04  -8.900362e-04  0 
 -1.322197e-04  -7.988203e-04  0 
 -3.954948e-05  -7.706442e-04  0 
 3.986527e-05  -8.133795e-04  0 
 1.076089e-04  -9.299103e-04  0 
 -3.308247e-05  -2.393609e-04  0 
 -9.677400e-05  -4.833540e-04  0 
 -2.210429e-06  -5.007333e-04  0 
 -6.978827e-05  -1.656336e-04  0 
 2.903661e-05  -1.494255e-04  0 
 -1.708415e-04  -7.364705e-04  0 
 4.113239e-05  -7.973055e-04  0 
 -5.030083e-05  -9.085919e-05  0 
 3.035455e-05  -7.393176e-05  0 
 -1.342670e-05  -6.624422e-04  0 
 -7.888517e-05  -6.410810e-04  0 
 -4.540050e-05  -4.991908e-04  0 
 -1.980039e-05  -1.174903e-04  0 
 -1.035090e-04  -3.187403e-04  0 
 2.751274e-05  -3.166722e-04  0 
 -1.933736e-04  -4.585975e-04  0 
 -5.558806e-05  -3.465671e-04  0 
 8.891560e-05  -4.655380e-04  0 
 -2.502268e-05  -3.501021e-04  0 
 -2.478040e-05  -6.710144e-05  0 
 4.681605e-06  -5.825307e-05  0 
 -6.311467e-06  -1.933972e-04  0 
 -4.931840e-05  -1.971381e-04  0 
 -2.414067e-04  -6.507980e-04  0 
 8.522498e-05  -7.089403e-04  0 
 2.710209e-05  -6.336117e-04  0 
 -1.590084e-04  -2.730840e-04  0 
 1.026994e-04  -2.422709e-04  0 
 -1.465574e-04  -5.919102e-04  0 
 -2.667472e-04  -8.174662e-04  0 
 6.408106e-05  -9.271109e-04  0 
VECTORS displacement_ITER12 FLOAT
 4.398730e-21  1.483428e-20  0 
 -4.396040e-04  -1.096587e-03  0 
 1.191823e-20  4.425191e-22  0 
 1.349378e-04  -1.268376e-03  0 
 -1.371112e-04  -1.830181e-04  0 
 -2.268562e-04  -3.189575e-04  0 
 -2.975265e-04  -4.417156e-04  0 
 -3.452953e-04  -5.760109e-04  0 
 -3.947102e-04  -7.608343e-04  0 
 1.052282e-04  -1.451344e-04  0 
 1.725608e-04  -2.764046e-04  0 
 2.197995e-04  -4.123561e-04  0 
 2.322468e-04  -5.766448e-04  0 
 2.211088e-04  -8.047534e-04  0 
 0  0  0 
 0  0  0 
 0  0  0 
 0  0  0 
 0  0  0 
 -2.480556e-04  -8.941086e-04  0 
 -1.333138e-04  -8.029095e-04  0 
 -3.977182e-05  -7.750463e-04  0 
 4.053359e-05  -8.186069e-04  0 
 1.098133e-04  -9.368299e-04  0 
 -3.336593e-05  -2.400566e-04  0 
 -9.785821e-05  -4.853907e-04  0 
 -1.956584e-06  -5.028676e-04  0 
 -7.032681e-05  -1.663558e-04  0 
 2.936221e-05  -1.497466e-04  0 
 -1.725966e-04  -7.396814e-04  0 
 4.218307e-05  -8.020445e-04  0 
 -5.062374e-05  -9.138616e-05  0 
 3.061499e-05  -7.409701e-05  0 
 -1.344876e-05  -6.659253e-04  0 
 -7.976456e-05  -6.441080e-04  0 
 -4.590072e-05  -5.013665e-04  0 
 -1.993836e-05  -1.177030e-04  0 
 -1.044593e-04  -3.200867e-04  0 
 2.797345e-05  -3.176859e-04  0 
 -1.950567e-04  -4.607614e-04  0 
 -5.619480e-05  -3.478519e-04  0 
 9.017674e-05  -4.675063e-04  0 
 -2.516854e-05  -3.513098e-04  0 
 -2.493576e-05  -6.730404e-05  0 
 4.748370e-06  -5.825777e-05  0 
 -6.278364e-06  -1.938201e-04  0 
 -4.975743e-05  -1.977811e-04  0 
 -2.436478e-04  -6.536140e-04  0 
 8.716132e-05  -7.126982e-04  0 
 2.785765e-05  -6.367220e-04  0 
 -1.601567e-04  -2.745510e-04  0 
 1.036211e-04  -2.431248e-04  0 
 -1.481052e-04  -5.944765e-04  0 
 -2.693797e-04  -8.207880e-04  0 
 6.656825e-05  -9.331007e-04  0 
VECTORS displacement_ITER13 FLOAT
 4.113647e-21  1.392599e-20  0 
 -4.399350e-04  -1.096172e-03  0 
 1.118264e-20  4.175086e-22  0 
 1.391456e-04  -1.275599e-03  0 
 -1.374587e-04  -1.834289e-04  0 
 -2.274144e-04  -3.195543e-04  0 
 -2.981949e-04  -4.425539e-04  0 
 -3.458816e-04  -5.770709e-04  0 
 -3.950186e-04  -7.617401e-04  0 
 1.057280e-04  -1.455892e-04  0 
 1.735000e-04  -2.773085e-04  0 
 2.211784e-04  -4.136393e-04  0 
 2.341630e-04  -5.786480e-04  0 
 2.239485e-04  -8.083493e-04  0 
 0  0  0 
 0  0  0 
 0  0  0 
 0  0  0 
 0  0  0 
 -2.484963e-04  -8.948496e-04  0 
 -1.335885e-04  -8.046264e-04  0 
 -3.979615e-05  -7.773915e-04  0 
 4.117718e-05  -8.216915e-04  0 
 1.113460e-04  -9.412982e-04  0 
 -3.351552e-05  -2.404184e-04  0 
 -9.835381e-05  -4.863402e-04  0 
 -1.778489e-06  -5.040759e-04  0 
 -7.056342e-05  -1.666718e-04  0 
 2.956626e-05  -1.499310e-04  0 
 -1.732544e-04  -7.407597e-04  0 
 4.293856e-05  -8.049625e-04  0 
 -5.077447e-05  -9.157223e-05  0 
 3.078347e-05  -7.419741e-05  0 
 -1.338797e-05  -6.678400e-04  0 
 -8.018861e-05  -6.455353e-04  0 
 -4.616354e-05  -5.024720e-04  0 
 -2.000228e-05  -1.178170e-04  0 
 -1.048375e-04  -3.207472e-04  0 
 2.828424e-05  -3.182622e-04  0 
 -1.956200e-04  -4.617236e-04  0 
 -5.650138e-05  -3.484978e-04  0 
 9.103456e-05  -4.686801e-04  0 
 -2.525166e-05  -3.519519e-04  0 
 -2.501410e-05  -6.739326e-05  0 
 4.788550e-06  -5.825504e-05  0 
 -6.254403e-06  -1.940332e-04  0 
 -4.995694e-05  -1.981215e-04  0 
 -2.443020e-04  -6.546845e-04  0 
 8.847005e-05  -7.150403e-04  0 
 2.837768e-05  -6.385695e-04  0 
 -1.606071e-04  -2.751087e-04  0 
 1.042497e-04  -2.437040e-04  0 
 -1.487310e-04  -5.955654e-04  0 
 -2.700348e-04  -8.214367e-04  0 
 6.830157e-05  -9.368791e-04  0 
VECTORS displacement_ITER14 FLOAT
 3.787782e-21  1.287948e-20  0 
 -4.391049e-04  -1.093403e-03  0 
 1.031901e-20  3.859581e-22  0 
 1.416131e-04  -1.279411e-03  0 
 -1.375454e-04  -1.834762e-04  0 
 -2.274311e-04  -3.197199e-04  0 
 -2.981335e-04  -4.426617e-04  0 
 -3.457087e-04  -5.770563e-04  0 
 -3.944630e-04  -7.611741e-04  0 
 1.058420e-04  -1.456460e-04  0 
 1.738408e-04  -2.774598e-04  0 
 2.218267e-04  -4.139554e-04  0 
 2.351383e-04  -5.793421e-04  0 
 2.254645e-04  -8.099800e-04  0 
 0  0  0 
 0  0  0 
 0  0  0 
 0  0  0 
 0  0  0 
 -2.483847e-04  -8.938925e-04  0 
 -1.336694e-04  -8.045353e-04  0 
 -3.984802e-05  -7.777613e-04  0 
 4.140502e-05  -8.226722e-04  0 
 1.119991e-04  -9.434206e-04  0 
 -3.366480e-05  -2.404333e-04  0 
 -9.862744e-05  -4.863844e-04  0 
 -1.863631e-06  -5.043299e-04  0 
 -7.062079e-05  -1.667931e-04  0 
 2.961632e-05  -1.498350e-04  0 
 -1.734942e-04  -7.403784e-04  0 
 4.312222e-05  -8.060909e-04  0 
 -5.080756e-05  -9.161852e-05  0 
 3.083037e-05  -7.415286e-05  0 
 -1.352893e-05  -6.683235e-04  0 
 -8.045387e-05  -6.455939e-04  0 
 -4.643469e-05  -5.026296e-04  0 
 -2.006345e-05  -1.177987e-04  0 
 -1.049880e-04  -3.208868e-04  0 
 2.832449e-05  -3.182459e-04  0 
 -1.957300e-04  -4.618335e-04  0 
 -5.673572e-05  -3.485721e-04  0 
 9.134187e-05  -4.688994e-04  0 
 -2.542114e-05  -3.520057e-04  0 
 -2.503865e-05  -6.743376e-05  0 
 4.792711e-06  -5.818100e-05  0 
 -6.309916e-06  -1.939607e-04  0 
 -5.007591e-05  -1.981987e-04  0 
 -2.444040e-04  -6.544954e-04  0 
 8.903854e-05  -7.158873e-04  0 
 2.844885e-05  -6.391211e-04  0 
 -1.606600e-04  -2.753076e-04  0 
 1.044600e-04  -2.436771e-04  0 
 -1.489933e-04  -5.954892e-04  0 
 -2.700918e-04  -8.205196e-04  0 
 6.914378e-05  -9.385415e-04  0 
VECTORS displacement_ITER15 FLOAT
 3.456558e-21  1.180069e-20  0 
 -4.371585e-04  -1.089452e-03  0 
 9.418502e-21  3.514409e-22  0 
 1.430289e-04  -1.281377e-03  0 
 -1.373475e-04  -1.833367e-04  0 
 -2.270207e-04  -3.194315e-04  0 
 -2.974909e-04  -4.421928e-04  0 
 -3.448214e-04  -5.762449e-04  0 
 -3.931630e-04  -7.596249e-04  0 
 1.057617e-04  -1.454730e-04  0 
 1.738075e-04  -2.772452e-04  0 
 2.219503e-04  -4.137629e-04  0 
 2.354737e-04  -5.792786e-04  0 
 2.261881e-04  -8.103931e-04  0 
 0  0  0 
 0  0  0 
 0  0  0 
 0  0  0 
 0  0  0 
 -2.478397e-04  -8.918753e-04  0 
 -1.334652e-04  -8.033484e-04  0 
 -3.972589e-05  -7.771547e-04  0 
 4.145541e-05  -8.226148e-04  0 
 1.122658e-04  -9.440730e-04  0 
 -3.376969e-05  -2.402585e-04  0 
 -9.867541e-05  -4.858887e-04  0 
 -2.011414e-06  -5.040505e-04  0 
 -7.055190e-05  -1.667693e-04  0 
 2.957906e-05  -1.496334e-04  0 
 -1.733232e-04  -7.390871e-04  0 
 4.310014e-05  -8.061853e-04  0 
 -5.074092e-05  -9.161184e-05  0 
 3.081026e-05  -7.403850e-05  0 
 -1.367732e-05  -6.680475e-04  0 
 -8.053005e-05  -6.448549e-04  0 
 -4.663864e-05  -5.022443e-04  0 
 -2.010217e-05  -1.177203e-04  0 
 -1.049237e-04  -3.206947e-04  0 
 2.824707e-05  -3.179420e-04  0 
 -1.954289e-04  -4.613921e-04  0 
 -5.686596e-05  -3.483160e-04  0 
 9.135388e-05  -4.686149e-04  0 
 -2.558131e-05  -3.517306e-04  0 
 -2.502323e-05  -6.744837e-05  0 
 4.778135e-06  -5.809090e-05  0 
 -6.386216e-06  -1.937559e-04  0 
 -5.010832e-05  -1.981245e-04  0 
 -2.439417e-04  -6.534823e-04  0 
 8.919318e-05  -7.158566e-04  0 
 2.836196e-05  -6.389445e-04  0 
 -1.604085e-04  -2.751669e-04  0 
 1.044196e-04  -2.433983e-04  0 
 -1.489071e-04  -5.947026e-04  0 
 -2.695160e-04  -8.187335e-04  0 
 6.945696e-05  -9.389793e-04  0 
VECTORS displacement_ITER16 FLOAT
 3.119141e-21  1.069638e-20  0 
 -4.355623e-04  -1.086278e-03  0 
 8.499433e-21  3.157550e-22  0 
 1.439760e-04  -1.282760e-03  0 
 -1.372518e-04  -1.833246e-04  0 
 -2.268314e-04  -3.192613e-04  0 
 -2.971292e-04  -4.419300e-04  0 
 -3.442147e-04  -5.757042e-04  0 
 -3.921625e-04  -7.583722e-04  0 
 1.056761e-04  -1.453503e-04  0 
 1.737395e-04  -2.770446e-04  0 
 2.219567e-04  -4.134948e-04  0 
 2.356476e-04  -5.790749e-04  0 
 2.266917e-04  -8.105497e-04  0 
 0  0  0 
 0  0  0 
 0  0  0 
 0  0  0 
 0  0  0 
 -2.474547e-04  -8.902717e-04  0 
 -1.333624e-04  -8.024581e-04  0 
 -3.975723e-05  -7.767200e-04  0 
 4.137446e-05  -8.225062e-04  0 
 1.123915e-04  -9.444634e-04  0 
 -3.386002e-05  -2.401179e-04  0 
 -9.877276e-05  -4.855498e-04  0 