# vtk DataFile Version 3.1
this is an vtk file created by FEMAC
ASCII
DATASET UNSTRUCTURED_GRID
POINTS 58 FLOAT
2.000000 4.000000 0.000000
2.000000 5.000000 0.000000
3.000000 4.000000 0.000000
3.000000 5.000000 0.000000
2.000000 4.166667 0.000000
2.000000 4.333333 0.000000
2.000000 4.500000 0.000000
2.000000 4.666667 0.000000
2.000000 4.833333 0.000000
2.166667 4.000000 0.000000
2.333333 4.000000 0.000000
2.500000 4.000000 0.000000
2.666667 4.000000 0.000000
2.833333 4.000000 0.000000
2.166667 5.000000 0.000000
2.333333 5.000000 0.000000
2.500000 5.000000 0.000000
2.666667 5.000000 0.000000
2.833333 5.000000 0.000000
3.000000 4.166667 0.000000
3.000000 4.333333 0.000000
3.000000 4.500000 0.000000
3.000000 4.666667 0.000000
3.000000 4.833333 0.000000
2.501543 4.500000 0.000000
2.706091 4.744369 0.000000
2.683170 4.267244 0.000000
2.744263 4.906897 0.000000
2.759236 4.133044 0.000000
2.353260 4.500000 0.000000
2.692095 4.545802 0.000000
2.538831 4.238928 0.000000
2.543415 4.763395 0.000000
2.448284 4.335633 0.000000
2.449048 4.664754 0.000000
2.607166 4.383029 0.000000
2.572740 4.628833 0.000000
2.598557 4.873451 0.000000
2.598557 4.126549 0.000000
2.880773 4.672405 0.000000
2.855529 4.270599 0.000000
2.427933 4.842585 0.000000
2.427169 4.157802 0.000000
2.118543 4.239868 0.000000
2.118603 4.760163 0.000000
2.193407 4.500000 0.000000
2.867911 4.455452 0.000000
2.126928 4.619297 0.000000
2.126928 4.380703 0.000000
2.233839 4.865578 0.000000
2.233662 4.134511 0.000000
2.273165 4.674056 0.000000
2.272928 4.326064 0.000000
2.741174 4.384425 0.000000
2.860743 4.859501 0.000000
2.889620 4.114062 0.000000
2.103822 4.891815 0.000000
2.103774 4.108209 0.000000
CELLS 90 360 
3 13 28 12
3 27 18 17
3 33 24 29
3 24 34 29
3 24 35 30
3 26 35 31
3 36 24 30
3 36 25 32
3 25 36 30
3 17 37 27
3 37 25 27
3 38 12 28
3 26 38 28
3 39 22 23
3 20 40 19
3 41 16 15
3 11 42 10
3 33 35 24
3 33 31 35
3 36 34 24
3 32 34 36
3 38 11 12
3 42 11 38
3 26 31 38
3 38 31 42
3 16 37 17
3 16 41 37
3 32 25 37
3 32 37 41
3 40 26 28
3 39 21 22
3 39 25 30
3 46 21 39
3 30 46 39
3 6 47  7
3 47 44  7
3 47  6 45
3 48  6  5
3 43 48  5
3 6 48 45
3 14 49 15
3 50  9 10
3 53 40 46
3 40 53 26
3 30 53 46
3 18 54  3
3 54 23  3
3 55 13  2
3 19 55  2
3 53 35 26
3 30 35 53
3 46 20 21
3 40 20 46
3 49 41 15
3 42 50 10
3 23 54 39
3 27 54 18
3 25 54 27
3 25 39 54
3 55 19 40
3 28 55 40
3 55 28 13
3 49 44 51
3 43 50 52
3 7 44  8
3 43  5  4
3 29 52 33
3 52 29 45
3 52 48 43
3 45 48 52
3 51 29 34
3 29 51 45
3 47 51 44
3 47 45 51
3 33 42 31
3 33 52 42
3 52 50 42
3 41 34 32
3 51 34 41
3 49 51 41
3 8 56  1
3 14 56 49
3 56 14  1
3 57  4  0
3 57  9 50
3 9 57  0
3 44 56  8
3 44 49 56
3 57 43  4
3 50 43 57
CELL_TYPES 90
5 5 5 5 5 5 5 5 5 5 5 5 5 5 5 5 5 5 5 5 5 5 5 5 5 5 5 5 5 5 5 5 5 5 5 5 5 5 5 5 5 5 5 5 5 5 5 5 5 5 5 5 5 5 5 5 5 5 5 5 5 5 5 5 5 5 5 5 5 5 5 5 5 5 5 5 5 5 5 5 5 5 5 5 5 5 5 5 5 5 
POINT_DATA 58
VECTORS displacement_ITER1 FLOAT
 4.698862e-03  -8.014455e-03  0 
 8.403524e-03  -9.164294e-03  0 
 5.175002e-03  -1.303301e-02  0 
 9.212029e-03  -1.321541e-02  0 
 5.539545e-03  -8.390745e-03  0 
 6.295918e-03  -8.636469e-03  0 
 6.978210e-03  -8.811098e-03  0 
 7.579880e-03  -8.954382e-03  0 
 8.094744e-03  -9.093607e-03  0 
 4.756096e-03  -9.146786e-03  0 
 4.855846e-03  -1.002584e-02  0 
 4.933558e-03  -1.079781e-02  0 
 5.008142e-03  -1.154059e-02  0 
 5.076900e-03  -1.225894e-02  0 
 8.642439e-03  -9.713613e-03  0 
 8.806529e-03  -1.028429e-02  0 
 8.937651e-03  -1.093259e-02  0 
 9.044571e-03  -1.163060e-02  0 
 9.136606e-03  -1.238321e-02  0 
 5.745747e-03  -1.295171e-02  0 
 6.360517e-03  -1.292896e-02  0 
 7.012009e-03  -1.293836e-02  0 
 7.700906e-03  -1.298297e-02  0 
 8.415823e-03  -1.307063e-02  0 
 7.034385e-03  -1.084618e-02  0 
 7.973221e-03  -1.171068e-02  0 
 6.114267e-03  -1.165851e-02  0 
 8.670407e-03  -1.192595e-02  0 
 5.598587e-03  -1.198354e-02  0 
 7.039062e-03  -1.021589e-02  0 
 7.193242e-03  -1.164812e-02  0 
 5.990367e-03  -1.102777e-02  0 
 8.025575e-03  -1.100991e-02  0 
 6.393141e-03  -1.062211e-02  0 
 7.651294e-03  -1.061768e-02  0 
 6.575069e-03  -1.131545e-02  0 
 7.516099e-03  -1.113269e-02  0 
 8.482375e-03  -1.127376e-02  0 
 5.531335e-03  -1.128357e-02  0 
 7.699371e-03  -1.246031e-02  0 
 6.131408e-03  -1.237708e-02  0 
 8.289738e-03  -1.055001e-02  0 
 5.634643e-03  -1.051894e-02  0 
 5.950805e-03  -9.066044e-03  0 
 7.917629e-03  -9.391072e-03  0 
 7.026899e-03  -9.565320e-03  0 
 6.832851e-03  -1.239576e-02  0 
 7.450960e-03  -9.364969e-03  0 
 6.545326e-03  -9.225163e-03  0 
 8.277740e-03  -9.822743e-03  0 
 5.498746e-03  -9.576003e-03  0 
 7.667940e-03  -9.914167e-03  0 
 6.356569e-03  -9.838174e-03  0 
 6.570643e-03  -1.188437e-02  0 
 8.489544e-03  -1.243736e-02  0 
 5.560515e-03  -1.254227e-02  0 
 8.266278e-03  -9.385691e-03  0 
 5.337391e-03  -8.839426e-03  0 
VECTORS displacement_ITER2 FLOAT
 3.131462e-03  -5.898177e-03  0 
 5.868435e-03  -7.369635e-03  0 
 3.788409e-03  -1.007743e-02  0 
 6.855313e-03  -1.035285e-02  0 
 3.927786e-03  -6.399912e-03  0 
 4.529011e-03  -6.680004e-03  0 
 5.041646e-03  -6.865073e-03  0 
 5.476599e-03  -7.027252e-03  0 
 5.822202e-03  -7.212940e-03  0 
 3.269256e-03  -7.013863e-03  0 
 3.394193e-03  -7.766704e-03  0 
 3.483513e-03  -8.380296e-03  0 
 3.572577e-03  -8.949835e-03  0 
 3.659975e-03  -9.487767e-03  0 
 6.163867e-03  -7.645586e-03  0 
 6.356634e-03  -8.013751e-03  0 
 6.496445e-03  -8.479190e-03  0 
 6.618755e-03  -9.002892e-03  0 
 6.748797e-03  -9.617284e-03  0 
 4.135955e-03  -9.997654e-03  0 
 4.582126e-03  -9.983957e-03  0 
 5.068188e-03  -9.990092e-03  0 
 5.589256e-03  -1.004953e-02  0 
 6.156106e-03  -1.016164e-02  0 
 5.102531e-03  -8.407384e-03  0 
 5.790537e-03  -9.049067e-03  0 
 4.406926e-03  -9.051873e-03  0 
 6.339078e-03  -9.220158e-03  0 
 4.030726e-03  -9.302443e-03  0 
 5.112870e-03  -7.923965e-03  0 
 5.205827e-03  -9.016651e-03  0 
 4.312829e-03  -8.567859e-03  0 
 5.830550e-03  -8.510179e-03  0 
 4.625086e-03  -8.244431e-03  0 
 5.559205e-03  -8.222266e-03  0 
 4.754706e-03  -8.779140e-03  0 
 5.453739e-03  -8.613353e-03  0 
 6.179137e-03  -8.711825e-03  0 
 3.964545e-03  -8.768018e-03  0 
 5.577729e-03  -9.638063e-03  0 
 4.415806e-03  -9.585970e-03  0 
 6.014522e-03  -8.170602e-03  0 
 4.035118e-03  -8.170778e-03  0 
 4.280035e-03  -6.989458e-03  0 
 5.731130e-03  -7.356205e-03  0 
 5.099964e-03  -7.430914e-03  0 
 4.933970e-03  -9.587327e-03  0 
 5.403164e-03  -7.305589e-03  0 
 4.734423e-03  -7.147951e-03  0 
 5.974475e-03  -7.656231e-03  0 
 3.920953e-03  -7.403488e-03  0 
 5.570490e-03  -7.704395e-03  0 
 4.601958e-03  -7.624370e-03  0 
 4.744265e-03  -9.209123e-03  0 
 6.200372e-03  -9.633500e-03  0 
 4.017995e-03  -9.722245e-03  0 
 5.925738e-03  -7.379725e-03  0 
 3.776947e-03  -6.766566e-03  0 
VECTORS displacement_ITER3 FLOAT
 2.590017e-03  -4.998254e-03  0 
 4.745199e-03  -6.683102e-03  0 
 3.362517e-03  -8.701762e-03  0 
 5.872951e-03  -9.016285e-03  0 
 3.370446e-03  -5.549932e-03  0 
 3.888416e-03  -5.857332e-03  0 
 4.310866e-03  -6.054087e-03  0 
 4.654196e-03  -6.227818e-03  0 
 4.892040e-03  -6.443946e-03  0 
 2.771477e-03  -6.093675e-03  0 
 2.909437e-03  -6.773619e-03  0 
 3.004993e-03  -7.305272e-03  0 
 3.103896e-03  -7.785388e-03  0 
 3.206999e-03  -8.225683e-03  0 
 5.101564e-03  -6.758858e-03  0 
 5.317425e-03  -7.008516e-03  0 
 5.469601e-03  -7.386603e-03  0 
 5.607506e-03  -7.822183e-03  0 
 5.754389e-03  -8.355716e-03  0 
 3.572700e-03  -8.630338e-03  0 
 3.920429e-03  -8.626364e-03  0 
 4.314154e-03  -8.635332e-03  0 
 4.752589e-03  -8.695560e-03  0 
 5.238357e-03  -8.815294e-03  0 
 4.366136e-03  -7.319028e-03  0 
 4.913443e-03  -7.838954e-03  0 
 3.790051e-03  -7.879820e-03  0 
 5.380487e-03  -7.993484e-03  0 
 3.491457e-03  -8.092075e-03  0 
 4.382211e-03  -6.917187e-03  0 
 4.435425e-03  -7.821559e-03  0 
 3.714503e-03  -7.474070e-03  0 
 4.943086e-03  -7.385483e-03  0 
 3.979778e-03  -7.192980e-03  0 
 4.731933e-03  -7.154883e-03  0 
 4.077322e-03  -7.641161e-03  0 
 4.642277e-03  -7.478032e-03  0 
 5.232086e-03  -7.557816e-03  0 
 3.426009e-03  -7.644939e-03  0 
 4.736513e-03  -8.341925e-03  0 
 3.791052e-03  -8.313568e-03  0 
 5.079115e-03  -7.109057e-03  0 
 3.479110e-03  -7.135778e-03  0 
 3.690408e-03  -6.099494e-03  0 
 4.854391e-03  -6.490648e-03  0 
 4.372050e-03  -6.512919e-03  0 
 4.206076e-03  -8.303442e-03  0 
 4.608403e-03  -6.429696e-03  0 
 4.070592e-03  -6.261065e-03  0 
 5.024174e-03  -6.710983e-03  0 
 3.375232e-03  -6.462622e-03  0 
 4.742925e-03  -6.740387e-03  0 
 3.966908e-03  -6.662674e-03  0 
 4.059610e-03  -7.997267e-03  0 
 5.268286e-03  -8.349179e-03  0 
 3.493580e-03  -8.433870e-03  0 
 4.952248e-03  -6.529886e-03  0 
 3.239827e-03  -5.880844e-03  0 
VECTORS displacement_ITER4 FLOAT
 2.257418e-03  -4.704807e-03  0 
 4.117174e-03  -6.505975e-03  0 
 3.099946e-03  -8.168856e-03  0 
 5.336398e-03  -8.508771e-03  0 
 3.025376e-03  -5.274989e-03  0 
 3.508244e-03  -5.593708e-03  0 
 3.892173e-03  -5.798868e-03  0 
 4.191406e-03  -5.979511e-03  0 
 4.372767e-03  -6.215650e-03  0 
 2.454970e-03  -5.783853e-03  0 
 2.601961e-03  -6.428102e-03  0 
 2.702921e-03  -6.922646e-03  0 
 2.807876e-03  -7.366951e-03  0 
 2.920072e-03  -7.762620e-03  0 
 4.512422e-03  -6.469456e-03  0 
 4.747410e-03  -6.660011e-03  0 
 4.908990e-03  -6.997992e-03  0 
 5.054343e-03  -7.391082e-03  0 
 5.210875e-03  -7.887785e-03  0 
 3.230141e-03  -8.116897e-03  0 
 3.533426e-03  -8.116802e-03  0 
 3.884005e-03  -8.124703e-03  0 
 4.280721e-03  -8.185374e-03  0 
 4.726872e-03  -8.307783e-03  0 
 3.943136e-03  -6.933635e-03  0 
 4.423501e-03  -7.394819e-03  0 
 3.424139e-03  -7.456116e-03  0 
 4.852147e-03  -7.540726e-03  0 
 3.161835e-03  -7.652376e-03  0 
 3.962197e-03  -6.570319e-03  0 
 3.995937e-03  -7.386348e-03  0 
 3.356887e-03  -7.087052e-03  0 
 4.447696e-03  -6.980712e-03  0 
 3.599673e-03  -6.825699e-03  0 
 4.265744e-03  -6.777804e-03  0 
 3.682353e-03  -7.233264e-03  0 
 4.183509e-03  -7.069484e-03  0 
 4.709128e-03  -7.139772e-03  0 
 3.097297e-03  -7.243999e-03  0 
 4.262616e-03  -7.859355e-03  0 
 3.420891e-03  -7.843262e-03  0 
 4.560203e-03  -6.732909e-03  0 
 3.140182e-03  -6.774790e-03  0 
 3.332422e-03  -5.806281e-03  0 
 4.364520e-03  -6.210043e-03  0 
 3.953973e-03  -6.207657e-03  0 
 3.788078e-03  -7.826752e-03  0 
 4.158988e-03  -6.143965e-03  0 
 3.681469e-03  -5.970304e-03  0 
 4.496590e-03  -6.389553e-03  0 
 3.038073e-03  -6.144579e-03  0 
 4.277183e-03  -6.411720e-03  0 
 3.590756e-03  -6.337745e-03  0 
 3.661558e-03  -7.554244e-03  0 
 4.752477e-03  -7.869234e-03  0 
 3.169979e-03  -7.958859e-03  0 
 4.410739e-03  -6.258694e-03  0 
 2.905001e-03  -5.587679e-03  0 
VECTORS displacement_ITER5 FLOAT
 2.088300e-03  -4.625227e-03  0 
 3.756917e-03  -6.482278e-03  0 
 2.959418e-03  -7.927604e-03  0 
 5.024726e-03  -8.285551e-03  0 
 2.840863e-03  -5.208072e-03  0 
 3.295526e-03  -5.530281e-03  0 
 3.650104e-03  -5.738910e-03  0 
 3.919732e-03  -5.923054e-03  0 
 4.068323e-03  -6.170305e-03  0 
 2.292978e-03  -5.692161e-03  0 
 2.445020e-03  -6.311940e-03  0 
 2.548287e-03  -6.776682e-03  0 
 2.655193e-03  -7.192542e-03  0 
 2.770000e-03  -7.556748e-03  0 
 4.166850e-03  -6.389716e-03  0 
 4.412707e-03  -6.543598e-03  0 
 4.578364e-03  -6.849485e-03  0 
 4.726259e-03  -7.210874e-03  0 
 4.891428e-03  -7.684670e-03  0 
 3.045546e-03  -7.881789e-03  0 
 3.319444e-03  -7.882891e-03  0 
 3.640530e-03  -7.889518e-03  0 
 4.007928e-03  -7.952315e-03  0 
 4.427861e-03  -8.080055e-03  0 
 3.701836e-03  -6.786041e-03  0 
 4.138574e-03  -7.208140e-03  0 
 3.222710e-03  -7.279101e-03  0 
 4.541246e-03  -7.346567e-03  0 
 2.985030e-03  -7.462448e-03  0 
 3.721855e-03  -6.448624e-03  0 
 3.744861e-03  -7.205432e-03  0 
 3.160547e-03  -6.935729e-03  0 
 4.159839e-03  -6.822286e-03  0 
 3.387195e-03  -6.688964e-03  0 
 3.996064e-03  -6.637608e-03  0 
 3.460732e-03  -7.068817e-03  0 
 3.919320e-03  -6.907599e-03  0 
 4.402810e-03  -6.971284e-03  0 
 2.921217e-03  -7.082184e-03  0 
 3.987897e-03  -7.645652e-03  0 
 3.218095e-03  -7.635090e-03  0 
 4.257512e-03  -6.595458e-03  0 
 2.957499e-03  -6.642869e-03  0 
 3.136667e-03  -5.722839e-03  0 
 4.077386e-03  -6.134351e-03  0 
 3.713679e-03  -6.113940e-03  0 
 3.552764e-03  -7.615612e-03  0 
 3.897170e-03  -6.063738e-03  0 
 3.461541e-03  -5.886692e-03  0 
 4.187401e-03  -6.289307e-03  0 
 2.859009e-03  -6.044575e-03  0 
 4.006386e-03  -6.304101e-03  0 
 3.380517e-03  -6.230232e-03  0 
 3.439058e-03  -7.365799e-03  0 
 4.449664e-03  -7.657619e-03  0 
 2.997368e-03  -7.746200e-03  0 
 4.093091e-03  -6.189538e-03  0 
 2.729378e-03  -5.505625e-03  0 
VECTORS displacement_ITER6 FLOAT
 2.003627e-03  -4.584884e-03  0 
 3.580102e-03  -6.482471e-03  0 
 2.896357e-03  -7.830595e-03  0 
 4.894628e-03  -8.200787e-03  0 
 2.753583e-03  -5.179080e-03  0 
 3.197194e-03  -5.506740e-03  0 
 3.538911e-03  -5.718550e-03  0 
 3.794101e-03  -5.904882e-03  0 
 3.925684e-03  -6.158507e-03  0 
 2.213285e-03  -5.651868e-03  0 
 2.369031e-03  -6.264696e-03  0 
 2.474112e-03  -6.716495e-03  0 
 2.582386e-03  -7.120083e-03  0 
 2.699507e-03  -7.471068e-03  0 
 4.002616e-03  -6.361149e-03  0 
 4.256442e-03  -6.496938e-03  0 
 4.426303e-03  -6.788301e-03  0 
 4.577807e-03  -7.137594e-03  0 
 4.751315e-03  -7.605726e-03  0 
 2.960252e-03  -7.781248e-03  0 
 3.219273e-03  -7.782778e-03  0 
 3.526200e-03  -7.790516e-03  0 
 3.882417e-03  -7.856492e-03  0 
 4.293525e-03  -7.990621e-03  0 
 3.590311e-03  -6.724802e-03  0 
 4.007432e-03  -7.129075e-03  0 
 3.129103e-03  -7.206761e-03  0 
 4.400551e-03  -7.266509e-03  0 
 2.903448e-03  -7.384481e-03  0 
 3.611178e-03  -6.398680e-03  0 
 3.627829e-03  -7.129550e-03  0 
 3.069159e-03  -6.874134e-03  0 
 4.026839e-03  -6.755246e-03  0 
 3.288965e-03  -6.633142e-03  0 
 3.871412e-03  -6.578790e-03  0 
 3.357864e-03  -7.001262e-03  0 
 3.797022e-03  -6.839179e-03  0 
 4.262227e-03  -6.900600e-03  0 
 2.838893e-03  -7.015888e-03  0 
 3.860532e-03  -7.556617e-03  0 
 3.123736e-03  -7.548520e-03  0 
 4.117181e-03  -6.537672e-03  0 
 2.871984e-03  -6.589441e-03  0 
 3.046055e-03  -5.689011e-03  0 
 3.943863e-03  -6.106143e-03  0 
 3.603257e-03  -6.076956e-03  0 
 3.442148e-03  -7.527138e-03  0 
 3.776405e-03  -6.033385e-03  0 
 3.360462e-03  -5.854153e-03  0 
 4.042618e-03  -6.248899e-03  0 
 2.775063e-03  -6.003669e-03  0 
 3.881194e-03  -6.260161e-03  0 
 3.283813e-03  -6.186804e-03  0 
 3.335183e-03  -7.287851e-03  0 
 4.313617e-03  -7.570400e-03  0 
 2.918839e-03  -7.658846e-03  0 
 3.942707e-03  -6.164220e-03  0 
 2.645899e-03  -5.470079e-03  0 
VECTORS displacement_ITER7 FLOAT
 1.945240e-03  -4.525083e-03  0 
 3.528712e-03  -6.462625e-03  0 
 2.854765e-03  -7.810852e-03  0 
 4.870364e-03  -8.177336e-03  0 
 2.708423e-03  -5.130793e-03  0 
 3.156790e-03  -5.465689e-03  0 
 3.500954e-03  -5.681014e-03  0 
 3.756958e-03  -5.870526e-03  0 
 3.887457e-03  -6.129360e-03  0 
 2.160219e-03  -5.609052e-03  0 
 2.319533e-03  -6.229877e-03  0 
 2.426231e-03  -6.685824e-03  0 
 2.535919e-03  -7.093060e-03  0 
 2.654485e-03  -7.446552e-03  0 
 3.959736e-03  -6.330184e-03  0 
 4.217478e-03  -6.463165e-03  0 
 4.389967e-03  -6.755286e-03  0 
 4.544032e-03  -7.106307e-03  0 
 4.721730e-03  -7.578782e-03  0 
 2.916734e-03  -7.758356e-03  0 
 3.176554e-03  -7.758083e-03  0 
 3.485259e-03  -7.764405e-03  0 
 3.844499e-03  -7.830386e-03  0 
 4.258373e-03  -7.966364e-03  0 
 3.552616e-03  -6.692472e-03  0 
 3.970996e-03  -7.096782e-03  0 
 3.087475e-03  -7.179817e-03  0 
 4.366491e-03  -7.235130e-03  0 
 2.860236e-03  -7.359593e-03  0 
 3.574206e-03  -6.364409e-03  0 
 3.589073e-03  -7.099269e-03  0 
 3.027323e-03  -6.844732e-03  0 
 3.990407e-03  -6.721156e-03  0 
 3.249444e-03  -6.601184e-03  0 
 3.835060e-03  -6.544623e-03  0 
 3.318195e-03  -6.971881e-03  0 
 3.759917e-03  -6.806260e-03  0 
 4.226717e-03  -6.867106e-03  0 
 2.794989e-03  -6.987971e-03  0 
 3.822256e-03  -7.528206e-03  0 
 3.081495e-03  -7.523823e-03  0 
 4.080402e-03  -6.502757e-03  0 
 2.828348e-03  -6.557818e-03  0 
 3.004884e-03  -5.648072e-03  0 
 3.907369e-03  -6.072812e-03  0 
 3.566296e-03  -6.041013e-03  0 
 3.401336e-03  -7.500141e-03  0 
 3.739900e-03  -5.998337e-03  0 
 3.321777e-03  -5.815942e-03  0 
 4.004661e-03  -6.214414e-03  0 
 2.730443e-03  -5.966290e-03  0 
 3.845219e-03  -6.225380e-03  0 
 3.244771e-03  -6.151048e-03  0 
 3.294630e-03  -7.260343e-03  0 
 4.279650e-03  -7.540570e-03  0 
 2.876094e-03  -7.636519e-03  0 
 3.902908e-03  -6.132157e-03  0 
 2.599184e-03  -5.425642e-03  0 
VECTORS displacement_ITER8 FLOAT
 1.918090e-03  -4.469439e-03  0 
 3.535393e-03  -6.435373e-03  0 
 2.838660e-03  -7.809778e-03  0 
 4.891114e-03  -8.169936e-03  0 
 2.693535e-03  -5.083266e-03  0 
 3.150141e-03  -5.422298e-03  0 
 3.501014e-03  -5.640017e-03  0 
 3.762644e-03  -5.832610e-03  0 
 3.897441e-03  -6.095905e-03  0 
 2.136850e-03  -5.569100e-03  0 
 2.298304e-03  -6.199066e-03  0 
 2.406148e-03  -6.662623e-03  0 
 2.516843e-03  -7.076969e-03  0 
 2.636483e-03  -7.437343e-03  0 
 3.971671e-03  -6.299503e-03  0 
 4.231503e-03  -6.434930e-03  0 
 4.405381e-03  -6.732316e-03  0 
 4.560938e-03  -7.088731e-03  0 
 4.740446e-03  -7.566883e-03  0 
 2.904214e-03  -7.754827e-03  0 
 3.169938e-03  -7.754005e-03  0 
 3.484728e-03  -7.759462e-03  0 
 3.849905e-03  -7.825011e-03  0 
 4.270192e-03  -7.960469e-03  0 
 3.553593e-03  -6.669479e-03  0 
 3.979905e-03  -7.079495e-03  0 
 3.079305e-03  -7.164810e-03  0 
 4.381006e-03  -7.219342e-03  0 
 2.847200e-03  -7.347948e-03  0 
 3.575445e-03  -6.336191e-03  0 
 3.590961e-03  -7.082874e-03  0 
 3.018036e-03  -6.823962e-03  0 
 3.999694e-03  -6.698557e-03  0 
 3.244259e-03  -6.576568e-03  0 
 3.841660e-03  -6.519369e-03  0 
 3.314586e-03  -6.953406e-03  0 
 3.765125e-03  -6.785046e-03  0 
 4.239454e-03  -6.846376e-03  0 
 2.781161e-03  -6.969606e-03  0 
 3.828022e-03  -7.518095e-03  0 
 3.073036e-03  -7.515113e-03  0 
 4.091558e-03  -6.476638e-03  0 
 2.815387e-03  -6.532202e-03  0 
 2.994927e-03  -5.608347e-03  0 
 3.916549e-03  -6.039353e-03  0 
 3.567304e-03  -6.007163e-03  0 
 3.399507e-03  -7.490691e-03  0 
 3.744831e-03  -5.963436e-03  0 
 3.317821e-03  -5.778319e-03  0 
 4.015870e-03  -6.183386e-03  0 
 2.715750e-03  -5.931510e-03  0 
 3.852274e-03  -6.195031e-03  0 
 3.239176e-03  -6.119124e-03  0 
 3.290637e-03  -7.246754e-03  0 
 4.293062e-03  -7.528461e-03  0 
 2.862740e-03  -7.630302e-03  0 
 3.913742e-03  -6.099439e-03  0 
 2.582333e-03  -5.382995e-03  0 
VECTORS displacement_ITER9 FLOAT
 1.894967e-03  -4.413573e-03  0 
 3.552793e-03  -6.400899e-03  0 
 2.824093e-03  -7.810236e-03  0 
 4.911080e-03  -8.160088e-03  0 
 2.681697e-03  -5.035852e-03  0 
 3.146318e-03  -5.377806e-03  0 
 3.504046e-03  -5.597724e-03  0 
 3.771737e-03  -5.792757e-03  0 
 3.912015e-03  -6.058726e-03  0 
 2.116573e-03  -5.529394e-03  0 
 2.279759e-03  -6.167879e-03  0 
 2.388711e-03  -6.639166e-03  0 
 2.500383e-03  -7.060602e-03  0 
 2.620797e-03  -7.428436e-03  0 
 3.990742e-03  -6.267146e-03  0 
 4.251292e-03  -6.406657e-03  0 
 4.425331e-03  -6.709213e-03  0 
 4.581254e-03  -7.070732e-03  0 
 4.760594e-03  -7.553576e-03  0 
 2.894754e-03  -7.752124e-03  0 
 3.166844e-03  -7.750447e-03  0 
 3.487660e-03  -7.754810e-03  0 
 3.858476e-03  -7.819085e-03  0 
 4.285088e-03  -7.952984e-03  0 
 3.557811e-03  -6.646581e-03  0 
 3.992344e-03  -7.062825e-03  0 
 3.074240e-03  -7.149746e-03  0 
 4.398631e-03  -7.203721e-03  0 
 2.837028e-03  -7.336198e-03  0 
 3.579717e-03  -6.307686e-03  0 
 3.596486e-03  -7.066861e-03  0 
 3.011671e-03  -6.802876e-03  0 
 4.012831e-03  -6.676632e-03  0 
 3.242000e-03  -6.551647e-03  0 
 3.851765e-03  -6.494439e-03  0 
 3.314197e-03  -6.934922e-03  0 
 3.773877e-03  -6.764387e-03  0 
 4.255964e-03  -6.826101e-03  0 
 2.770091e-03  -6.950956e-03  0 
 3.837394e-03  -7.507913e-03  0 
 3.067919e-03  -7.506654e-03  0 
 4.107072e-03  -6.451090e-03  0 
 2.805227e-03  -6.506146e-03  0 
 2.987662e-03  -5.567966e-03  0 
 3.929442e-03  -6.004367e-03  0 
 3.571229e-03  -5.972506e-03  0 
 3.401235e-03  -7.481582e-03  0 
 3.752915e-03  -5.927363e-03  0 
 3.316684e-03  -5.739846e-03  0 
 4.031894e-03  -6.152014e-03  0 
 2.703905e-03  -5.896175e-03  0 
 3.862693e-03  -6.164310e-03  0 
 3.236337e-03  -6.086619e-03  0 
 3.290033e-03  -7.233387e-03  0 
 4.309331e-03  -7.516361e-03  0 
 2.852169e-03  -7.624370e-03  0 
 3.930104e-03  -6.064934e-03  0 
 2.568796e-03  -5.339944e-03  0 
VECTORS displacement_ITER10 FLOAT
 1.857813e-03  -4.383236e-03  0 
 3.560722e-03  -6.378246e-03  0 
 2.794478e-03  -7.825130e-03  0 
 4.915599e-03  -8.171682e-03  0 
 2.655419e-03  -5.009325e-03  0 
 3.127906e-03  -5.353439e-03  0 
 3.492397e-03  -5.574705e-03  0 
 3.766344e-03  -5.770071e-03  0 
 3.912947e-03  -6.035850e-03  0 
 2.081911e-03  -5.510210e-03  0 
 2.246831e-03  -6.156767e-03  0 
 2.357129e-03  -6.635104e-03  0 
 2.469900e-03  -7.063142e-03  0 
 2.591009e-03  -7.437285e-03  0 
 3.998163e-03  -6.250934e-03  0 
 4.258598e-03  -6.396819e-03  0 
 4.432340e-03  -6.705534e-03  0 
 4.587850e-03  -7.072973e-03  0 
 4.765820e-03  -7.561006e-03  0 
 2.870849e-03  -7.766921e-03  0 
 3.149013e-03  -7.765633e-03  0 
 3.476077e-03  -7.770130e-03  0 
 3.853197e-03  -7.833637e-03  0 
 4.285325e-03  -7.966308e-03  0 
 3.546410e-03  -6.643005e-03  0 
 3.990101e-03  -7.066912e-03  0 
 3.053727e-03  -7.153394e-03  0 
 4.401759e-03  -7.209006e-03  0 
 2.811687e-03  -7.342589e-03  0 
 3.568334e-03  -6.298325e-03  0 
 3.586822e-03  -7.070448e-03  0 
 2.989920e-03  -6.801074e-03  0 
 4.011257e-03  -6.674725e-03  0 
 3.224190e-03  -6.546117e-03  0 
 3.846533e-03  -6.488878e-03  0 
 3.298204e-03  -6.935537e-03  0 
 3.767318e-03  -6.763502e-03  0 
 4.258237e-03  -6.826216e-03  0 
 2.744101e-03  -6.951361e-03  0 
 3.832557e-03  -7.518261e-03  0 
 3.047623e-03  -7.516529e-03  0 
 4.108426e-03  -6.444885e-03  0 
 2.779938e-03  -6.499862e-03  0 
 2.965478e-03  -5.548125e-03  0 
 3.927612e-03  -5.986242e-03  0 
 3.559796e-03  -5.956807e-03  0 
 3.387961e-03  -7.491901e-03  0 
 3.745838e-03  -5.909388e-03  0 
 3.300565e-03  -5.721139e-03  0 
 4.034167e-03  -6.138424e-03  0 
 2.676956e-03  -5.881360e-03  0 
 3.857757e-03  -6.152022e-03  0 
 3.218146e-03  -6.073942e-03  0 
 3.274034e-03  -7.239053e-03  0 
 4.310805e-03  -7.525369e-03  0 
 2.826375e-03  -7.635334e-03  0 
 3.933463e-03  -6.046412e-03  0 
 2.539907e-03  -5.318413e-03  0 
VECTORS displacement_ITER11 FLOAT
 1.831534e-03  -4.374099e-03  0 
 3.563994e-03  -6.368315e-03  0 
 2.772557e-03  -7.841043e-03  0 
 4.912335e-03  -8.185935e-03  0 
 2.635573e-03  -5.001176e-03  0 
 3.112314e-03  -5.346226e-03  0 
 3.480654e-03  -5.567789e-03  0 
 3.758557e-03  -5.762664e-03  0 
 3.909458e-03  -6.027333e-03  0 
 2.057311e-03  -5.506346e-03  0 
 2.223203e-03  -6.157704e-03  0 
 2.334177e-03  -6.639738e-03  0 
 2.447400e-03  -7.071575e-03  0 
 2.568876e-03  -7.449614e-03  0 
 3.999681e-03  -6.247074e-03  0 
 4.259380e-03  -6.397757e-03  0 
 4.432405e-03  -6.710196e-03  0 
 4.587011e-03  -7.081163e-03  0 
 4.763695e-03  -7.572211e-03  0 
 2.852147e-03  -7.782777e-03  0 
 3.133764e-03  -7.781569e-03  0 
 3.464534e-03  -7.785891e-03  0 
 3.845264e-03  -7.848902e-03  0 
 4.280420e-03  -7.980928e-03  0 
 3.534796e-03  -6.648072e-03  0 
 3.983889e-03  -7.076708e-03  0 
 3.036965e-03  -7.162542e-03  0 
 4.398657e-03  -7.219236e-03  0 
 2.792172e-03  -7.353361e-03  0 
 3.556653e-03  -6.299847e-03  0 
 3.576357e-03  -7.079759e-03  0 
 2.972351e-03  -6.807018e-03  0 
 4.005642e-03  -6.680935e-03  0 
 3.208831e-03  -6.549919e-03  0 
 3.838610e-03  -6.492801e-03  0 
 3.284006e-03  -6.942978e-03  0 
 3.758603e-03  -6.770305e-03  0 
 4.254939e-03  -6.833538e-03  0 
 2.724176e-03  -6.958505e-03  0 
 3.824906e-03  -7.531352e-03  0 
 3.031019e-03  -7.529396e-03  0 
 4.104861e-03  -6.448386e-03  0 
 2.760329e-03  -6.503249e-03  0 
 2.947744e-03  -5.543747e-03  0 
 3.922004e-03  -5.981659e-03  0 
 3.548080e-03  -5.954396e-03  0 
 3.375458e-03  -7.504924e-03  0 
 3.736813e-03  -5.905302e-03  0 
 3.286169e-03  -5.717122e-03  0 
 4.031445e-03  -6.136984e-03  0 
 2.656489e-03  -5.880038e-03  0 
 3.850012e-03  -6.151611e-03  0 
 3.202519e-03  -6.073542e-03  0 
 3.259929e-03  -7.249434e-03  0 
 4.306457e-03  -7.537943e-03  0 
 2.806588e-03  -7.648923e-03  0 
 3.931812e-03  -6.041262e-03  0 
 2.518265e-03  -5.313491e-03  0 
VECTORS displacement_ITER12 FLOAT
 1.829101e-03  -4.372530e-03  0 
 3.562811e-03  -6.365174e-03  0 
 2.771419e-03  -7.838302e-03  0 
 4.907038e-03  -8.182233e-03  0 
 2.633576e-03  -4.999769e-03  0 
 3.110150e-03  -5.345206e-03  0 
 3.478303e-03  -5.566808e-03  0 
 3.756148e-03  -5.761567e-03  0 
 3.906772e-03  -6.025639e-03  0 
 2.055346e-03  -5.504872e-03  0 
 2.221605e-03  -6.156363e-03  0 
 2.332679e-03  -6.638035e-03  0 
 2.445941e-03  -7.069606e-03  0 
 2.567577e-03  -7.447431e-03  0 
 3.997417e-03  -6.245322e-03  0 
 4.256529e-03  -6.396214e-03  0 
 4.429220e-03  -6.708416e-03  0 
 4.583333e-03  -7.079270e-03  0 
 4.759266e-03  -7.569512e-03  0 
 2.850577e-03  -7.780354e-03  0 
 3.131777e-03  -7.779091e-03  0 
 3.462247e-03  -7.783223e-03  0 
 3.842430e-03  -7.846036e-03  0 
 4.277092e-03  -7.977593e-03  0 
 3.532438e-03  -6.646562e-03  0 
 3.980940e-03  -7.074918e-03  0 
 3.035092e-03  -7.160650e-03  0 
 4.395127e-03  -7.217306e-03  0 
 2.790552e-03  -7.351338e-03  0 
 3.554268e-03  -6.298525e-03  0 
 3.573971e-03  -7.077901e-03  0 
 2.970452e-03  -6.805366e-03  0 
 4.002728e-03  -6.679468e-03  0 
 3.206763e-03  -6.548430e-03  0 
 3.835899e-03  -6.491416e-03  0 
 3.281912e-03  -6.941243e-03  0 
 3.755972e-03  -6.768751e-03  0 
 4.251695e-03  -6.831948e-03  0 
 2.722495e-03  -6.956691e-03  0 
 3.822204e-03  -7.528922e-03  0 
 3.029180e-03  -7.527221e-03  0 
 4.101935e-03  -6.446984e-03  0 
 2.758497e-03  -6.501767e-03  0 
 2.945782e-03  -5.542567e-03  0 
 3.919276e-03  -5.980272e-03  0 
 3.545712e-03  -5.953242e-03  0 
 3.373285e-03  -7.502623e-03  0 
 3.734314e-03  -5.904153e-03  0 
 3.283975e-03  -5.716011e-03  0 
 4.028684e-03  -6.135654e-03  0 
 2.654621e-03  -5.878835e-03  0 
 3.847326e-03  -6.150336e-03  0 
 3.200437e-03  -6.072281e-03  0 
 3.257879e-03  -7.247442e-03  0 
 4.302990e-03  -7.535629e-03  0 
 2.805042e-03  -7.646649e-03  0 
 3.929228e-03  -6.039727e-03  0 
 2.516231e-03  -5.312234e-03  0 
VECTORS displacement_ITER13 FLOAT
 1.824368e-03  -4.369039e-03  0 
 3.561125e-03  -6.359312e-03  0 
 2.767679e-03  -7.834396e-03  0 
 4.902578e-03  -8.179438e-03  0 
 2.628981e-03  -4.995994e-03  0 
 3.105817e-03  -5.341378e-03  0 
 3.474243e-03  -5.562727e-03  0 
 3.752413e-03  -5.757246e-03  0 
 3.903482e-03  -6.020804e-03  0 
 2.050624e-03  -5.501109e-03  0 
 2.217005e-03  -6.152781e-03  0 
 2.328167e-03  -6.634674e-03  0 
 2.441638e-03  -7.066345e-03  0 
 2.563560e-03  -7.443974e-03  0 
 3.994870e-03  -6.240935e-03  0 
 4.253380e-03  -6.392458e-03  0 
 4.425913e-03  -6.705097e-03  0 
 4.579824e-03  -7.076415e-03  0 
 4.755375e-03  -7.566688e-03  0 
 2.846610e-03  -7.777093e-03  0 
 3.127671e-03  -7.776136e-03  0 
 3.458257e-03  -7.780582e-03  0 
 3.838650e-03  -7.843429e-03  0 
 4.273418e-03  -7.974787e-03  0 
 3.528299e-03  -6.643375e-03  0 
 3.977117e-03  -7.072159e-03  0 
 3.030810e-03  -7.157550e-03  0 
 4.391447e-03  -7.214628e-03  0 
 2.786285e-03  -7.348169e-03  0 
 3.550104e-03  -6.295138e-03  0 
 3.569947e-03  -7.074920e-03  0 
 2.966113e-03  -6.802146e-03  0 
 3.998945e-03  -6.676430e-03  0 
 3.202456e-03  -6.545143e-03  0 
 3.831958e-03  -6.488183e-03  0 
 3.277686e-03  -6.938120e-03  0 
 3.751986e-03  -6.765712e-03  0 
 4.248041e-03  -6.829007e-03  0 
 2.718131e-03  -6.953493e-03  0 
 3.818444e-03  -7.526209e-03  0 
 3.024984e-03  -7.524195e-03  0 
 4.098361e-03  -6.443658e-03  0 
 2.754059e-03  -6.498401e-03  0 
 2.941296e-03  -5.538921e-03  0 
 3.915639e-03  -5.976135e-03  0 
 3.541562e-03  -5.949567e-03  0 
 3.369180e-03  -7.499767e-03  0 
 3.730396e-03  -5.900217e-03  0 
 3.279668e-03  -5.712307e-03  0 
 4.025336e-03  -6.131879e-03  0 
 2.650059e-03  -5.875267e-03  0 
 3.843440e-03  -6.146739e-03  0 
 3.196065e-03  -6.068800e-03  0 
 3.253687e-03  -7.244447e-03  0 
 4.299217e-03  -7.533096e-03  0 
 2.800929e-03  -7.643318e-03  0 
 3.926165e-03  -6.035360e-03  0 
 2.511543e-03  -5.308562e-03  0 
VECTORS displacement_ITER14 FLOAT
 1.823172e-03  -4.373872e-03  0 
 3.557464e-03  -6.361267e-03  0 
 2.767015e-03  -7.833663e-03  0 
 4.896952e-03  -8.180242e-03  0 
 2.626658e-03  -5.000322e-03  0 
 3.102864e-03  -5.345374e-03  0 
 3.470699e-03  -5.566432e-03  0 
 3.748376e-03  -5.760613e-03  0 
 3.899289e-03  -6.023665e-03  0 
 2.049285e-03  -5.504476e-03  0 
 2.215526e-03  -6.155350e-03  0 
 2.326694e-03  -6.636656e-03  0 
 2.440328e-03  -7.067584e-03  0 
 2.562487e-03  -7.444261e-03  0 
 3.990597e-03  -6.243542e-03  0 
 4.248676e-03  -6.394954e-03  0 
 4.420998e-03  -6.707169e-03  0 
 4.574720e-03  -7.077896e-03  0 
 4.750077e-03  -7.567683e-03  0 
 2.844727e-03  -7.776883e-03  0 
 3.124986e-03  -7.776231e-03  0 
 3.454917e-03  -7.780950e-03  0 
 3.834712e-03  -7.843857e-03  0 
 4.268706e-03  -7.975203e-03  0 
 3.524739e-03  -6.645527e-03  0 
 3.972774e-03  -7.073788e-03  0 
 3.028245e-03  -7.158900e-03  0 
 4.386529e-03  -7.216002e-03  0 
 2.784372e-03  -7.349097e-03  0 
 3.546497e-03  -6.297781e-03  0 
 3.566311e-03  -7.076417e-03  0 
 2.963626e-03  -6.804031e-03  0 
 3.994597e-03  -6.678527e-03  0 
 3.199506e-03  -6.547417e-03  0 
 3.827859e-03  -6.490546e-03  0 
 3.274612e-03  -6.939818e-03  0 
 3.748010e-03  -6.767698e-03  0 
 4.243363e-03  -6.830889e-03  0 
 2.716155e-03  -6.955125e-03  0 
 3.814456e-03  -7.527116e-03  0 
 3.022481e-03  -7.524834e-03  0 
 4.093864e-03  -6.446071e-03  0 
 2.751894e-03  -6.500674e-03  0 
 2.938626e-03  -5.542557e-03  0 
 3.911371e-03  -5.979162e-03  0 
 3.537942e-03  -5.952685e-03  0 
 3.365932e-03  -7.500546e-03  0 
 3.726429e-03  -5.903391e-03  0 
 3.276486e-03  -5.715766e-03  0 
 4.020906e-03  -6.134705e-03  0 
 2.647925e-03  -5.878306e-03  0 
 3.839309e-03  -6.149566e-03  0 
 3.193077e-03  -6.071740e-03  0 