# vtk DataFile Version 3.1
this is an vtk file created by FEMAC
ASCII
DATASET UNSTRUCTURED_GRID
POINTS 58 FLOAT
2.000000 1.000000 0.000000
2.000000 2.000000 0.000000
3.000000 1.000000 0.000000
3.000000 2.000000 0.000000
2.000000 1.166667 0.000000
2.000000 1.333333 0.000000
2.000000 1.500000 0.000000
2.000000 1.666667 0.000000
2.000000 1.833333 0.000000
2.166667 1.000000 0.000000
2.333333 1.000000 0.000000
2.500000 1.000000 0.000000
2.666667 1.000000 0.000000
2.833333 1.000000 0.000000
2.166667 2.000000 0.000000
2.333333 2.000000 0.000000
2.500000 2.000000 0.000000
2.666667 2.000000 0.000000
2.833333 2.000000 0.000000
3.000000 1.166667 0.000000
3.000000 1.333333 0.000000
3.000000 1.500000 0.000000
3.000000 1.666667 0.000000
3.000000 1.833333 0.000000
2.546275 1.500567 0.000000
2.354000 1.325284 0.000000
2.723004 1.320370 0.000000
2.322985 1.679439 0.000000
2.729512 1.678300 0.000000
2.532100 1.328794 0.000000
2.578645 1.650940 0.000000
2.285823 1.501630 0.000000
2.771978 1.500047 0.000000
2.431766 1.451492 0.000000
2.435109 1.591329 0.000000
2.604206 1.148442 0.000000
2.598855 1.834938 0.000000
2.883666 1.415848 0.000000
2.882598 1.586856 0.000000
2.156169 1.604175 0.000000
2.167644 1.312552 0.000000
2.656737 1.551102 0.000000
2.652559 1.439616 0.000000
2.321422 1.851408 0.000000
2.878441 1.755522 0.000000
2.877149 1.243792 0.000000
2.153915 1.118601 0.000000
2.150470 1.484826 0.000000
2.150082 1.793098 0.000000
2.456403 1.748758 0.000000
2.766090 1.134047 0.000000
2.772952 1.861849 0.000000
2.289254 1.172776 0.000000
2.435482 1.162549 0.000000
2.895314 1.108901 0.000000
2.896945 1.890141 0.000000
2.442003 1.887021 0.000000
2.079187 1.906608 0.000000
CELLS 90 360 
3 24 33 29
3 25 33 31
3 33 25 29
3 34 24 30
3 34 27 31
3 21 37 20
3 26 37 32
3 38 21 22
3 38 28 32
3 24 41 30
3 28 41 32
3 41 28 30
3 42 24 29
3 42 26 32
3 26 42 29
3 23 44 22
3 45 19 20
3 37 45 20
3 37 26 45
3 44 38 22
3 28 38 44
3 34 33 24
3 31 33 34
3 38 37 21
3 32 37 38
3 42 41 24
3 32 41 42
3 46  4  0
3 9 46  0
3 40 25 31
3 6 39  7
3 27 39 31
3 35 11 12
3 35 26 29
3 28 36 30
3 4 40  5
3 46 40  4
3 6 47 39
3 31 47 40
3 47 31 39
3 48 39 27
3 43 48 27
3 49 43 27
3 34 49 27
3 34 30 49
3 36 49 30
3 9 10 46
3 5 47  6
3 5 40 47
3 50 35 12
3 36 51 17
3 50 26 35
3 45 26 50
3 28 51 36
3 28 44 51
3 13 50 12
3 51 18 17
3 15 14 43
3 14 48 43
3 40 52 25
3 52 40 46
3 11 53 10
3 19 54  2
3 54 19 45
3 54 13  2
3 55 23  3
3 23 55 44
3 18 55  3
3 35 53 11
3 51 55 18
3 51 44 55
3 54 50 13
3 45 50 54
3 52 46 10
3 53 52 10
3 48  7 39
3 48  8  7
3 53 29 25
3 53 35 29
3 52 53 25
3 36 17 16
3 16 56 36
3 49 56 43
3 56 49 36
3 15 56 16
3 15 43 56
3 8 57  1
3 14 57 48
3 57 14  1
3 57  8 48
CELL_TYPES 90
5 5 5 5 5 5 5 5 5 5 5 5 5 5 5 5 5 5 5 5 5 5 5 5 5 5 5 5 5 5 5 5 5 5 5 5 5 5 5 5 5 5 5 5 5 5 5 5 5 5 5 5 5 5 5 5 5 5 5 5 5 5 5 5 5 5 5 5 5 5 5 5 5 5 5 5 5 5 5 5 5 5 5 5 5 5 5 5 5 5 
POINT_DATA 58
VECTORS displacement_ITER1 FLOAT
 -2.306452e-03  -5.127283e-03  0 
 -1.144725e-03  -2.891756e-03  0 
 -7.183224e-03  -1.372168e-02  0 
 -1.333790e-03  -8.765729e-03  0 
 -2.567812e-03  -4.261324e-03  0 
 -1.152552e-03  -3.034742e-03  0 
 -2.004245e-04  -2.846259e-03  0 
 -6.716906e-04  -3.307749e-03  0 
 -1.120619e-03  -3.157672e-03  0 
 -4.586634e-03  -6.317577e-03  0 
 -4.669547e-03  -7.362140e-03  0 
 -4.327525e-03  -9.270780e-03  0 
 -4.382987e-03  -1.062211e-02  0 
 -5.152243e-03  -1.169353e-02  0 
 -2.100351e-03  -6.535958e-03  0 
 -2.684981e-03  -5.874387e-03  0 
 -1.837208e-03  -6.276218e-03  0 
 -1.380898e-03  -6.018342e-03  0 
 -1.065096e-03  -6.614089e-03  0 
 -6.170864e-03  -1.128058e-02  0 
 -6.192098e-03  -8.195065e-03  0 
 -5.558658e-03  -8.444256e-03  0 
 -4.706447e-03  -9.410269e-03  0 
 -2.781283e-03  -9.575617e-03  0 
 -3.063806e-03  -7.406602e-03  0 
 -2.692427e-03  -7.130953e-03  0 
 -4.343014e-03  -9.358430e-03  0 
 -1.358900e-03  -5.236529e-03  0 
 -3.410710e-03  -7.028787e-03  0 
 -3.444093e-03  -8.501868e-03  0 
 -2.698531e-03  -6.557257e-03  0 
 -1.546555e-03  -5.738921e-03  0 
 -4.695162e-03  -8.221787e-03  0 
 -2.523829e-03  -7.095012e-03  0 
 -2.092377e-03  -6.226963e-03  0 
 -4.060577e-03  -9.746416e-03  0 
 -1.860974e-03  -5.737182e-03  0 
 -5.464691e-03  -8.557588e-03  0 
 -4.912854e-03  -8.385141e-03  0 
 -7.824579e-04  -4.289401e-03  0 
 -2.119857e-03  -5.354530e-03  0 
 -3.639679e-03  -7.495671e-03  0 
 -3.899636e-03  -8.383800e-03  0 
 -1.444451e-03  -5.598632e-03  0 
 -3.425220e-03  -7.946229e-03  0 
 -5.023323e-03  -9.875526e-03  0 
 -3.393055e-03  -5.507776e-03  0 
 -9.830034e-04  -4.525710e-03  0 
 -1.325778e-03  -4.557610e-03  0 
 -1.658731e-03  -5.594998e-03  0 
 -4.648438e-03  -1.038763e-02  0 
 -2.074074e-03  -6.605262e-03  0 
 -3.281646e-03  -6.879872e-03  0 
 -3.597389e-03  -8.514773e-03  0 
 -5.482224e-03  -1.111733e-02  0 
 -2.071866e-03  -7.897778e-03  0 
 -1.860023e-03  -5.531260e-03  0 
 -1.665189e-03  -4.458912e-03  0 
VECTORS displacement_ITER2 FLOAT
 -2.689612e-03  -4.260405e-03  0 
 -1.703203e-03  -2.419663e-03  0 
 -4.975607e-03  -8.230098e-03  0 
 -1.160516e-03  -7.020828e-03  0 
 -1.513367e-03  -2.741298e-03  0 
 -1.217151e-03  -2.513480e-03  0 
 -1.489761e-03  -2.831681e-03  0 
 -1.202188e-03  -1.909665e-03  0 
 -1.016258e-03  -1.180953e-03  0 
 -3.613410e-03  -4.408565e-03  0 
 -3.275388e-03  -6.013342e-03  0 
 -3.506984e-03  -7.665358e-03  0 
 -3.477713e-03  -8.645242e-03  0 
 -3.561277e-03  -8.493394e-03  0 
 -1.846389e-03  -2.863634e-03  0 
 -1.495164e-03  -4.317342e-03  0 
 -1.110359e-03  -5.316171e-03  0 
 -1.000134e-03  -7.343808e-03  0 
 -1.741175e-03  -7.433616e-03  0 
 -4.302433e-03  -8.140774e-03  0 
 -4.806782e-03  -7.561738e-03  0 
 -3.076738e-03  -8.565758e-03  0 
 -2.139652e-03  -8.413646e-03  0 
 -2.467330e-03  -8.315752e-03  0 
 -2.684333e-03  -5.978472e-03  0 
 -2.321346e-03  -5.476304e-03  0 
 -3.622707e-03  -7.350185e-03  0 
 -1.913286e-03  -4.287540e-03  0 
 -2.345744e-03  -6.899401e-03  0 
 -2.883693e-03  -6.539746e-03  0 
 -2.403040e-03  -5.846561e-03  0 
 -1.902988e-03  -4.358068e-03  0 
 -3.234181e-03  -6.817520e-03  0 
 -2.407627e-03  -5.506898e-03  0 
 -2.207984e-03  -5.096451e-03  0 
 -3.419418e-03  -7.786499e-03  0 
 -1.816922e-03  -6.171812e-03  0 
 -3.975714e-03  -7.339357e-03  0 
 -2.580689e-03  -7.723522e-03  0 
 -1.702027e-03  -3.388626e-03  0 
 -1.721064e-03  -3.944761e-03  0 
 -2.866903e-03  -6.359453e-03  0 
 -3.065605e-03  -6.594723e-03  0 
 -1.655089e-03  -3.885268e-03  0 
 -2.047270e-03  -7.989860e-03  0 
 -4.236654e-03  -7.957861e-03  0 
 -2.663345e-03  -4.426505e-03  0 
 -1.599094e-03  -3.507516e-03  0 
 -1.369673e-03  -2.901583e-03  0 
 -2.047642e-03  -4.985011e-03  0 
 -3.968837e-03  -8.197959e-03  0 
 -1.509510e-03  -7.483052e-03  0 
 -2.649253e-03  -5.470615e-03  0 
 -2.916166e-03  -6.629507e-03  0 
 -4.253504e-03  -7.873788e-03  0 
 -1.657340e-03  -7.312552e-03  0 
 -1.543707e-03  -4.803604e-03  0 
 -1.286409e-03  -2.251300e-03  0 
VECTORS displacement_ITER3 FLOAT
 -3.208565e-03  -3.605328e-03  0 
 -9.912563e-04  -2.588498e-03  0 
 -4.563661e-03  -8.331164e-03  0 
 -9.835032e-04  -6.387622e-03  0 
 -1.823842e-03  -3.149265e-03  0 
 -1.762114e-03  -3.242777e-03  0 
 -1.084067e-03  -2.856587e-03  0 
 -1.035494e-03  -2.700273e-03  0 
 -1.459572e-03  -3.040568e-03  0 
 -3.281489e-03  -4.460793e-03  0 
 -3.279151e-03  -5.947134e-03  0 
 -3.483169e-03  -6.897118e-03  0 
 -3.709200e-03  -7.512413e-03  0 
 -3.987554e-03  -8.206142e-03  0 
 -1.717560e-03  -4.557848e-03  0 
 -1.673334e-03  -5.064951e-03  0 
 -2.254218e-03  -4.267836e-03  0 
 -2.070309e-03  -5.399981e-03  0 
 -1.657960e-03  -5.997715e-03  0 
 -4.214349e-03  -8.414844e-03  0 
 -4.023504e-03  -7.982691e-03  0 
 -3.400999e-03  -7.695582e-03  0 
 -3.093222e-03  -7.090305e-03  0 
 -2.288244e-03  -6.559952e-03  0 
 -2.315668e-03  -5.879307e-03  0 
 -2.317694e-03  -5.413542e-03  0 
 -3.253128e-03  -7.122390e-03  0 
 -1.537766e-03  -4.603425e-03  0 
 -2.286966e-03  -5.954434e-03  0 
 -2.746200e-03  -6.311227e-03  0 
 -2.006440e-03  -5.623716e-03  0 
 -1.729561e-03  -4.681858e-03  0 
 -2.923212e-03  -6.751637e-03  0 
 -2.170046e-03  -5.508554e-03  0 
 -1.857668e-03  -5.209432e-03  0 
 -3.384418e-03  -7.074091e-03  0 
 -1.891821e-03  -5.157679e-03  0 
 -3.454307e-03  -7.380183e-03  0 
 -2.938109e-03  -6.945757e-03  0 
 -1.329424e-03  -3.815344e-03  0 
 -1.942685e-03  -4.219604e-03  0 
 -2.445614e-03  -6.155694e-03  0 
 -2.755580e-03  -6.496398e-03  0 
 -1.441545e-03  -4.651543e-03  0 
 -2.417280e-03  -6.209772e-03  0 
 -3.817790e-03  -7.841374e-03  0 
 -2.585097e-03  -4.563717e-03  0 
 -1.529650e-03  -3.988512e-03  0 
 -1.355017e-03  -3.782663e-03  0 
 -1.633583e-03  -5.069216e-03  0 
 -3.767950e-03  -7.699373e-03  0 
 -1.979799e-03  -5.596706e-03  0 
 -2.666491e-03  -5.352606e-03  0 
 -2.981260e-03  -6.260069e-03  0 
 -4.149768e-03  -8.062338e-03  0 
 -1.849661e-03  -5.933682e-03  0 
 -1.561115e-03  -4.894590e-03  0 
 -1.538332e-03  -3.711967e-03  0 
VECTORS displacement_ITER4 FLOAT
 -2.770142e-03  -3.949478e-03  0 
 -1.511937e-03  -3.055971e-03  0 
 -3.963933e-03  -8.524165e-03  0 
 -1.389835e-03  -7.113692e-03  0 
 -1.778345e-03  -3.350712e-03  0 
 -1.568785e-03  -3.054896e-03  0 
 -1.228908e-03  -2.805181e-03  0 
 -9.617182e-04  -2.569731e-03  0 
 -7.400942e-04  -2.635205e-03  0 
 -2.723418e-03  -4.810036e-03  0 
 -3.056209e-03  -5.704108e-03  0 
 -3.047445e-03  -6.383552e-03  0 
 -3.176606e-03  -6.967105e-03  0 
 -3.537702e-03  -7.870765e-03  0 
 -1.445752e-03  -3.484783e-03  0 
 -1.724626e-03  -3.955724e-03  0 
 -1.573638e-03  -4.997940e-03  0 
 -1.663422e-03  -5.769442e-03  0 
 -1.571617e-03  -6.618979e-03  0 
 -3.686316e-03  -8.135880e-03  0 
 -3.292558e-03  -7.930139e-03  0 
 -3.073621e-03  -7.788057e-03  0 
 -2.739341e-03  -7.738270e-03  0 
 -2.135101e-03  -7.505048e-03  0 
 -2.265535e-03  -6.019862e-03  0 
 -2.272375e-03  -5.400598e-03  0 
 -2.932603e-03  -7.059227e-03  0 
 -1.484276e-03  -4.579203e-03  0 
 -2.260969e-03  -6.405888e-03  0 
 -2.611463e-03  -6.300106e-03  0 
 -2.052623e-03  -5.818720e-03  0 
 -1.739975e-03  -4.664377e-03  0 
 -2.724375e-03  -6.993963e-03  0 
 -2.145363e-03  -5.563854e-03  0 
 -1.850360e-03  -5.299389e-03  0 
 -3.003924e-03  -6.768844e-03  0 
 -1.798116e-03  -5.554016e-03  0 
 -3.027979e-03  -7.506019e-03  0 
 -2.763917e-03  -7.289742e-03  0 
 -1.322412e-03  -3.740405e-03  0 
 -1.923247e-03  -4.237448e-03  0 
 -2.390299e-03  -6.382122e-03  0 
 -2.612351e-03  -6.613917e-03  0 
 -1.396670e-03  -4.210287e-03  0 
 -2.270166e-03  -6.953430e-03  0 
 -3.268660e-03  -7.616110e-03  0 
 -2.430851e-03  -4.680785e-03  0 
 -1.533081e-03  -3.865350e-03  0 
 -1.032408e-03  -3.539529e-03  0 
 -1.692333e-03  -5.024810e-03  0 
 -3.208497e-03  -7.352933e-03  0 
 -1.870843e-03  -6.310174e-03  0 
 -2.553243e-03  -5.291747e-03  0 
 -2.789079e-03  -6.103005e-03  0 
 -3.524981e-03  -7.904955e-03  0 
 -1.796523e-03  -6.834545e-03  0 
 -1.643554e-03  -4.666530e-03  0 
 -1.094482e-03  -3.060707e-03  0 
VECTORS displacement_ITER5 FLOAT
 -2.771726e-03  -3.713900e-03  0 
 -1.112037e-03  -3.090654e-03  0 
 -3.659081e-03  -8.495416e-03  0 
 -1.605642e-03  -6.896669e-03  0 
 -1.787595e-03  -3.161444e-03  0 
 -1.373396e-03  -2.901267e-03  0 
 -1.175399e-03  -2.895442e-03  0 
 -1.074384e-03  -2.886457e-03  0 
 -8.139225e-04  -2.873352e-03  0 
 -2.823585e-03  -4.859244e-03  0 
 -3.128115e-03  -5.728709e-03  0 
 -3.193104e-03  -6.551437e-03  0 
 -3.346520e-03  -7.380246e-03  0 
 -3.461650e-03  -8.007846e-03  0 
 -1.211256e-03  -4.087077e-03  0 
 -1.435673e-03  -4.595545e-03  0 
 -1.524771e-03  -5.338332e-03  0 
 -1.644049e-03  -5.560771e-03  0 
 -1.666178e-03  -6.125598e-03  0 
 -3.772708e-03  -8.200643e-03  0 
 -3.599678e-03  -8.435024e-03  0 
 -3.236754e-03  -8.115126e-03  0 
 -2.690659e-03  -7.831657e-03  0 
 -2.326197e-03  -7.485443e-03  0 
 -2.182712e-03  -6.149431e-03  0 
 -2.202170e-03  -5.481211e-03  0 
 -3.025272e-03  -7.315055e-03  0 
 -1.379100e-03  -4.755971e-03  0 
 -2.144777e-03  -6.538393e-03  0 
 -2.586055e-03  -6.457589e-03  0 
 -1.893853e-03  -5.970904e-03  0 
 -1.622512e-03  -4.717697e-03  0 
 -2.696804e-03  -7.161042e-03  0 
 -2.056992e-03  -5.666548e-03  0 
 -1.721641e-03  -5.419302e-03  0 
 -3.062762e-03  -7.056276e-03  0 
 -1.573413e-03  -5.664861e-03  0 
 -3.161936e-03  -7.807838e-03  0 
 -2.722220e-03  -7.426496e-03  0 
 -1.271372e-03  -3.862178e-03  0 
 -1.804757e-03  -4.248066e-03  0 
 -2.301790e-03  -6.537638e-03  0 
 -2.579523e-03  -6.774142e-03  0 
 -1.272038e-03  -4.666700e-03  0 
 -2.274312e-03  -7.016530e-03  0 
 -3.521924e-03  -7.999512e-03  0 
 -2.455249e-03  -4.649013e-03  0 
 -1.407085e-03  -3.892182e-03  0 
 -1.079812e-03  -3.870980e-03  0 
 -1.489999e-03  -5.265711e-03  0 
 -3.349010e-03  -7.771669e-03  0 
 -1.808227e-03  -6.197260e-03  0 
 -2.545378e-03  -5.347143e-03  0 
 -2.800760e-03  -6.223654e-03  0 
 -3.529339e-03  -8.143598e-03  0 
 -1.921259e-03  -6.646477e-03  0 
 -1.454992e-03  -5.111319e-03  0 
 -1.028656e-03  -3.432416e-03  0 
VECTORS displacement_ITER6 FLOAT
 -2.681922e-03  -3.767753e-03  0 
 -1.001107e-03  -3.309636e-03  0 
 -3.718936e-03  -8.554529e-03  0 
 -1.698693e-03  -7.118857e-03  0 
 -1.748996e-03  -3.241927e-03  0 
 -1.307761e-03  -2.991166e-03  0 
 -1.042206e-03  -2.886645e-03  0 
 -8.850233e-04  -2.849997e-03  0 
 -8.506672e-04  -3.083488e-03  0 
 -2.810152e-03  -4.971462e-03  0 
 -3.048357e-03  -5.771594e-03  0 
 -3.230027e-03  -6.581405e-03  0 
 -3.338703e-03  -7.267808e-03  0 
 -3.525174e-03  -7.890703e-03  0 
 -1.203248e-03  -4.320622e-03  0 
 -1.219127e-03  -4.774751e-03  0 
 -1.442654e-03  -5.028776e-03  0 
 -1.568911e-03  -5.473675e-03  0 
 -1.636856e-03  -6.148231e-03  0 
 -3.714323e-03  -8.296837e-03  0 
 -3.485228e-03  -8.176853e-03  0 
 -3.217502e-03  -7.957754e-03  0 
 -2.753298e-03  -7.861814e-03  0 
 -2.285842e-03  -7.646244e-03  0 
 -2.150228e-03  -6.195336e-03  0 
 -2.168567e-03  -5.525493e-03  0 
 -2.951654e-03  -7.319855e-03  0 
 -1.270642e-03  -4.762025e-03  0 
 -2.174111e-03  -6.549659e-03  0 
 -2.543820e-03  -6.479951e-03  0 
 -1.864084e-03  -5.995377e-03  0 
 -1.557060e-03  -4.767540e-03  0 
 -2.702260e-03  -7.174225e-03  0 
 -2.015155e-03  -5.715737e-03  0 
 -1.665128e-03  -5.457740e-03  0 
 -3.052886e-03  -7.029955e-03  0 
 -1.534251e-03  -5.602282e-03  0 
 -3.119258e-03  -7.728121e-03  0 
 -2.773967e-03  -7.419734e-03  0 
 -1.140042e-03  -3.886631e-03  0 
 -1.756364e-03  -4.320080e-03  0 
 -2.292984e-03  -6.574769e-03  0 
 -2.549805e-03  -6.815496e-03  0 
 -1.113175e-03  -4.657351e-03  0 
 -2.313008e-03  -7.053148e-03  0 
 -3.372428e-03  -7.920761e-03  0 
 -2.413895e-03  -4.732860e-03  0 
 -1.324741e-03  -3.939312e-03  0 
 -9.482329e-04  -3.903203e-03  0 
 -1.395166e-03  -5.265886e-03  0 
 -3.299397e-03  -7.655601e-03  0 
 -1.815127e-03  -6.211816e-03  0 
 -2.511941e-03  -5.401308e-03  0 
 -2.775369e-03  -6.216463e-03  0 
 -3.507546e-03  -8.114089e-03  0 
 -1.933426e-03  -6.784396e-03  0 
 -1.263612e-03  -5.066262e-03  0 
 -1.006175e-03  -3.676063e-03  0 
VECTORS displacement_ITER7 FLOAT
 -2.554971e-03  -3.799034e-03  0 
 -1.039443e-03  -3.389891e-03  0 
 -3.735875e-03  -8.370871e-03  0 
 -1.793872e-03  -7.285884e-03  0 
 -1.762441e-03  -3.349362e-03  0 
 -1.331965e-03  -3.093432e-03  0 
 -1.089940e-03  -2.962078e-03  0 
 -8.534615e-04  -2.866579e-03  0 
 -7.534535e-04  -2.976618e-03  0 
 -2.787040e-03  -4.985619e-03  0 
 -2.997118e-03  -5.756668e-03  0 
 -3.202916e-03  -6.569467e-03  0 
 -3.301150e-03  -7.222968e-03  0 
 -3.524162e-03  -7.872521e-03  0 
 -1.248457e-03  -4.032492e-03  0 
 -1.301991e-03  -4.604038e-03  0 
 -1.374312e-03  -5.173430e-03  0 
 -1.527851e-03  -5.769263e-03  0 
 -1.674169e-03  -6.389338e-03  0 
 -3.706574e-03  -8.319716e-03  0 
 -3.432473e-03  -8.024285e-03  0 
 -3.100726e-03  -7.920180e-03  0 
 -2.720662e-03  -7.891499e-03  0 
 -2.190461e-03  -7.702605e-03  0 
 -2.174388e-03  -6.207289e-03  0 
 -2.173490e-03  -5.537545e-03  0 
 -2.917973e-03  -7.270308e-03  0 
 -1.324067e-03  -4.793670e-03  0 
 -2.183142e-03  -6.616235e-03  0 
 -2.532106e-03  -6.462553e-03  0 
 -1.924788e-03  -6.027844e-03  0 
 -1.598021e-03  -4.817581e-03  0 
 -2.699669e-03  -7.154129e-03  0 
 -2.037665e-03  -5.735628e-03  0 
 -1.715816e-03  -5.492485e-03  0 
 -3.029784e-03  -6.990046e-03  0 
 -1.603980e-03  -5.745714e-03  0 
 -3.076677e-03  -7.644426e-03  0 
 -2.734721e-03  -7.452246e-03  0 
 -1.170274e-03  -3.939306e-03  0 
 -1.777904e-03  -4.374285e-03  0 
 -2.319959e-03  -6.577349e-03  0 
 -2.549051e-03  -6.798950e-03  0 
 -1.188196e-03  -4.569122e-03  0 
 -2.265797e-03  -7.142797e-03  0 
 -3.313985e-03  -7.838207e-03  0 
 -2.382840e-03  -4.739452e-03  0 
 -1.368501e-03  -3.997194e-03  0 
 -9.218571e-04  -3.868801e-03  0 
 -1.494270e-03  -5.282121e-03  0 
 -3.279955e-03  -7.580971e-03  0 
 -1.819113e-03  -6.431959e-03  0 
 -2.486736e-03  -5.400923e-03  0 
 -2.747359e-03  -6.193402e-03  0 
 -3.540301e-03  -8.052486e-03  0 
 -1.926530e-03  -6.976815e-03  0 
 -1.346497e-03  -5.041129e-03  0 
 -9.418075e-04  -3.563395e-03  0 
VECTORS displacement_ITER8 FLOAT
 -2.549848e-03  -3.609474e-03  0 
 -8.777737e-04  -3.375215e-03  0 
 -3.774016e-03  -8.252126e-03  0 
 -1.746610e-03  -7.236899e-03  0 
 -1.824721e-03  -3.337119e-03  0 
 -1.404301e-03  -3.137999e-03  0 
 -1.142080e-03  -3.006411e-03  0 
 -9.761456e-04  -3.009587e-03  0 
 -8.145862e-04  -3.054548e-03  0 
 -2.858972e-03  -4.880866e-03  0 
 -3.033398e-03  -5.780694e-03  0 
 -3.211208e-03  -6.582373e-03  0 
 -3.359377e-03  -7.305423e-03  0 
 -3.517111e-03  -7.889875e-03  0 
 -1.259928e-03  -4.154987e-03  0 
 -1.451621e-03  -4.667127e-03  0 
 -1.546701e-03  -5.249346e-03  0 
 -1.660131e-03  -5.708712e-03  0 
 -1.718389e-03  -6.249801e-03  0 
 -3.775533e-03  -8.241158e-03  0 
 -3.581749e-03  -8.109418e-03  0 
 -3.162057e-03  -7.922994e-03  0 
 -2.775614e-03  -7.686795e-03  0 
 -2.265926e-03  -7.516577e-03  0 
 -2.191848e-03  -6.183231e-03  0 
 -2.189989e-03  -5.527587e-03  0 
 -2.980175e-03  -7.247817e-03  0 
 -1.369550e-03  -4.861003e-03  0 
 -2.205272e-03  -6.543520e-03  0 
 -2.559166e-03  -6.446679e-03  0 
 -1.944505e-03  -6.005241e-03  0 
 -1.634780e-03  -4.845806e-03  0 
 -2.719234e-03  -7.088797e-03  0 
 -2.058041e-03  -5.726553e-03  0 
 -1.740500e-03  -5.505819e-03  0 
 -3.063430e-03  -7.007164e-03  0 
 -1.667212e-03  -5.709888e-03  0 
 -3.147499e-03  -7.623914e-03  0 
 -2.743406e-03  -7.361864e-03  0 
 -1.231567e-03  -4.006879e-03  0 
 -1.814157e-03  -4.380314e-03  0 
 -2.335737e-03  -6.531934e-03  0 
 -2.572551e-03  -6.755729e-03  0 
 -1.274153e-03  -4.701669e-03  0 
 -2.332254e-03  -6.994729e-03  0 
 -3.445034e-03  -7.861826e-03  0 
 -2.386671e-03  -4.655820e-03  0 
 -1.420268e-03  -4.045795e-03  0 
 -1.008460e-03  -4.011167e-03  0 
 -1.536143e-03  -5.318135e-03  0 
 -3.360147e-03  -7.638933e-03  0 
 -1.891106e-03  -6.293646e-03  0 
 -2.487368e-03  -5.376979e-03  0 
 -2.765853e-03  -6.203818e-03  0 
 -3.604590e-03  -8.015040e-03  0 
 -1.997352e-03  -6.813640e-03  0 
 -1.465681e-03  -5.109730e-03  0 
 -9.563284e-04  -3.688624e-03  0 
VECTORS displacement_ITER9 FLOAT
 -2.526330e-03  -3.640471e-03  0 
 -9.257826e-04  -3.493763e-03  0 
 -3.937408e-03  -8.302284e-03  0 
 -1.698877e-03  -7.177293e-03  0 
 -1.792846e-03  -3.335726e-03  0 
 -1.365642e-03  -3.060163e-03  0 
 -1.108842e-03  -2.921696e-03  0 
 -9.217467e-04  -2.923779e-03  0 
 -8.002039e-04  -3.052175e-03  0 
 -2.860914e-03  -4.908989e-03  0 
 -3.084674e-03  -5.848748e-03  0 
 -3.214947e-03  -6.583917e-03  0 
 -3.378290e-03  -7.263114e-03  0 
 -3.588112e-03  -7.854605e-03  0 
 -1.266879e-03  -4.139103e-03  0 
 -1.427393e-03  -4.578928e-03  0 
 -1.533578e-03  -5.061323e-03  0 
 -1.602412e-03  -5.604813e-03  0 
 -1.652615e-03  -6.192753e-03  0 
 -3.824675e-03  -8.152369e-03  0 
 -3.542178e-03  -8.046081e-03  0 
 -3.137462e-03  -7.908708e-03  0 
 -2.728406e-03  -7.664041e-03  0 
 -2.272956e-03  -7.494231e-03  0 
 -2.181589e-03  -6.129771e-03  0 
 -2.188037e-03  -5.494062e-03  0 
 -2.999819e-03  -7.189616e-03  0 
 -1.318326e-03  -4.781762e-03  0 
 -2.191194e-03  -6.488578e-03  0 
 -2.576917e-03  -6.412200e-03  0 
 -1.917936e-03  -5.935383e-03  0 
 -1.605832e-03  -4.781136e-03  0 
 -2.705440e-03  -7.043018e-03  0 
 -2.048175e-03  -5.673411e-03  0 
 -1.708951e-03  -5.437213e-03  0 
 -3.090266e-03  -6.969601e-03  0 
 -1.638349e-03  -5.593338e-03  0 
 -3.136234e-03  -7.584084e-03  0 
 -2.716131e-03  -7.324603e-03  0 
 -1.184365e-03  -3.934368e-03  0 
 -1.799822e-03  -4.334640e-03  0 
 -2.322795e-03  -6.481837e-03  0 
 -2.575877e-03  -6.705462e-03  0 
 -1.218678e-03  -4.605087e-03  0 
 -2.313960e-03  -6.971132e-03  0 
 -3.459510e-03  -7.773888e-03  0 
 -2.373864e-03  -4.651699e-03  0 
 -1.386319e-03  -3.972778e-03  0 
 -9.499498e-04  -3.953763e-03  0 
 -1.490904e-03  -5.224441e-03  0 
 -3.386379e-03  -7.565677e-03  0 
 -1.858887e-03  -6.226587e-03  0 
 -2.491008e-03  -5.372419e-03  0 
 -2.792099e-03  -6.215258e-03  0 
 -3.651188e-03  -7.945637e-03  0 
 -1.968183e-03  -6.765280e-03  0 
 -1.415876e-03  -4.985995e-03  0 
 -9.407316e-04  -3.696917e-03  0 
VECTORS displacement_ITER10 FLOAT
 -2.534551e-03  -3.656150e-03  0 
 -9.053485e-04  -3.391967e-03  0 
 -3.884032e-03  -8.226284e-03  0 
 -1.758375e-03  -7.111747e-03  0 
 -1.782348e-03  -3.308731e-03  0 
 -1.378788e-03  -3.074555e-03  0 
 -1.129511e-03  -2.994689e-03  0 
 -9.362379e-04  -2.955357e-03  0 
 -8.260813e-04  -3.003549e-03  0 
 -2.857696e-03  -4.911609e-03  0 
 -3.102463e-03  -5.841840e-03  0 
 -3.212762e-03  -6.616291e-03  0 
 -3.339413e-03  -7.300845e-03  0 
 -3.554392e-03  -7.900461e-03  0 
 -1.259163e-03  -4.128921e-03  0 
 -1.409590e-03  -4.622554e-03  0 
 -1.524524e-03  -5.153243e-03  0 
 -1.590349e-03  -5.699061e-03  0 
 -1.673680e-03  -6.252623e-03  0 
 -3.812818e-03  -8.141540e-03  0 
 -3.540014e-03  -8.039102e-03  0 
 -3.198902e-03  -7.914353e-03  0 
 -2.730229e-03  -7.755263e-03  0 
 -2.233721e-03  -7.485243e-03  0 
 -2.196295e-03  -6.147805e-03  0 
 -2.185070e-03  -5.517916e-03  0 
 -3.014296e-03  -7.224392e-03  0 
 -1.355542e-03  -4.803410e-03  0 
 -2.194150e-03  -6.505526e-03  0 
 -2.580482e-03  -6.446086e-03  0 
 -1.932583e-03  -5.959738e-03  0 
 -1.612486e-03  -4.804490e-03  0 
 -2.733895e-03  -7.074364e-03  0 
 -2.053952e-03  -5.696071e-03  0 
 -1.729906e-03  -5.454325e-03  0 
 -3.081013e-03  -7.017378e-03  0 
 -1.643109e-03  -5.654565e-03  0 
 -3.164907e-03  -7.614616e-03  0 
 -2.757064e-03  -7.347527e-03  0 
 -1.211243e-03  -3.968092e-03  0 
 -1.795411e-03  -4.343482e-03  0 
 -2.338254e-03  -6.499973e-03  0 
 -2.594800e-03  -6.732426e-03  0 
 -1.245147e-03  -4.637262e-03  0 
 -2.276236e-03  -7.004433e-03  0 
 -3.456137e-03  -7.782747e-03  0 
 -2.380780e-03  -4.653634e-03  0 
 -1.393645e-03  -4.005653e-03  0 
 -9.918813e-04  -3.949394e-03  0 
 -1.516158e-03  -5.263210e-03  0 
 -3.370774e-03  -7.592085e-03  0 
 -1.840018e-03  -6.297131e-03  0 
 -2.491459e-03  -5.384851e-03  0 
 -2.785550e-03  -6.247889e-03  0 
 -3.643383e-03  -7.953612e-03  0 
 -1.949273e-03  -6.800279e-03  0 
 -1.428333e-03  -5.048731e-03  0 
 -9.566823e-04  -3.657518e-03  0 
VECTORS displacement_ITER11 FLOAT
 -2.529204e-03  -3.670353e-03  0 
 -9.354842e-04  -3.414983e-03  0 
 -3.874259e-03  -8.314782e-03  0 
 -1.711626e-03  -7.149482e-03  0 
 -1.811980e-03  -3.317710e-03  0 
 -1.395922e-03  -3.061723e-03  0 
 -1.086068e-03  -2.937745e-03  0 
 -9.215751e-04  -2.919752e-03  0 
 -8.333941e-04  -3.014265e-03  0 
 -2.849847e-03  -4.890542e-03  0 
 -3.083673e-03  -5.771789e-03  0 
 -3.214256e-03  -6.547297e-03  0 
 -3.344664e-03  -7.242321e-03  0 
 -3.565076e-03  -7.888515e-03  0 
 -1.266604e-03  -4.126512e-03  0 
 -1.401579e-03  -4.590618e-03  0 
 -1.510804e-03  -5.097068e-03  0 
 -1.586271e-03  -5.608848e-03  0 
 -1.640349e-03  -6.202263e-03  0 
 -3.796389e-03  -8.172163e-03  0 
 -3.526797e-03  -7.993878e-03  0 
 -3.183141e-03  -7.797791e-03  0 
 -2.741757e-03  -7.667591e-03  0 
 -2.244762e-03  -7.466392e-03  0 
 -2.183199e-03  -6.123890e-03  0 
 -2.186754e-03  -5.489102e-03  0 
 -2.975726e-03  -7.189507e-03  0 
 -1.333368e-03  -4.767443e-03  0 
 -2.204679e-03  -6.461554e-03  0 
 -2.561276e-03  -6.410000e-03  0 
 -1.928600e-03  -5.925903e-03  0 
 -1.603114e-03  -4.784860e-03  0 
 -2.719405e-03  -7.031177e-03  0 
 -2.043961e-03  -5.674834e-03  0 
 -1.718590e-03  -5.430032e-03  0 
 -3.062816e-03  -6.962565e-03  0 
 -1.635563e-03  -5.595308e-03  0 
 -3.134231e-03  -7.553368e-03  0 
 -2.760760e-03  -7.280089e-03  0 
 -1.185418e-03  -3.927936e-03  0 
 -1.811742e-03  -4.328996e-03  0 
 -2.329981e-03  -6.469217e-03  0 
 -2.573162e-03  -6.703794e-03  0 
 -1.229073e-03  -4.598794e-03  0 
 -2.302498e-03  -6.949266e-03  0 
 -3.420428e-03  -7.766717e-03  0 
 -2.394603e-03  -4.633960e-03  0 
 -1.380101e-03  -3.982191e-03  0 
 -9.778397e-04  -3.923627e-03  0 
 -1.500140e-03  -5.220362e-03  0 
 -3.344862e-03  -7.563051e-03  0 
 -1.850435e-03  -6.226299e-03  0 
 -2.497823e-03  -5.346616e-03  0 
 -2.777771e-03  -6.186803e-03  0 
 -3.619197e-03  -7.972997e-03  0 
 -1.952968e-03  -6.764326e-03  0 
 -1.414317e-03  -4.999583e-03  0 
 -9.654597e-04  -3.657910e-03  0 
VECTORS displacement_ITER12 FLOAT
 -2.545355e-03  -3.661767e-03  0 
 -9.311335e-04  -3.394638e-03  0 
 -3.849412e-03  -8.301662e-03  0 
 -1.739619e-03  -7.097587e-03  0 
 -1.784838e-03  -3.307298e-03  0 
 -1.350027e-03  -3.048545e-03  0 
 -1.094368e-03  -2.967965e-03  0 
 -9.312751e-04  -2.933787e-03  0 
 -8.126557e-04  -2.991987e-03  0 
 -2.857821e-03  -4.907153e-03  0 
 -3.068931e-03  -5.812505e-03  0 
 -3.216036e-03  -6.594049e-03  0 
 -3.351390e-03  -7.297167e-03  0 
 -3.548674e-03  -7.894646e-03  0 
 -1.232315e-03  -4.116100e-03  0 
 -1.367020e-03  -4.619282e-03  0 
 -1.474343e-03  -5.153263e-03  0 
 -1.577347e-03  -5.642046e-03  0 
 -1.655150e-03  -6.193051e-03  0 
 -3.796320e-03  -8.162311e-03  0 
 -3.573551e-03  -8.043417e-03  0 
 -3.167513e-03  -7.873747e-03  0 
 -2.711286e-03  -7.682775e-03  0 
 -2.246313e-03  -7.444060e-03  0 
 -2.176778e-03  -6.132499e-03  0 
 -2.173176e-03  -5.502478e-03  0 
 -2.990295e-03  -7.213562e-03  0 
 -1.334327e-03  -4.779651e-03  0 
 -2.174026e-03  -6.490142e-03  0 
 -2.558684e-03  -6.426001e-03  0 
 -1.912808e-03  -5.943053e-03  0 
 -1.593452e-03  -4.783048e-03  0 
 -2.711728e-03  -7.042717e-03  0 
 -2.036680e-03  -5.681148e-03  0 
 -1.710423e-03  -5.436472e-03  0 
 -3.068257e-03  -7.002248e-03  0 
 -1.612527e-03  -5.640614e-03  0 
 -3.151542e-03  -7.581555e-03  0 
 -2.725885e-03  -7.312132e-03  0 
 -1.191945e-03  -3.936444e-03  0 
 -1.781871e-03  -4.336616e-03  0 
 -2.319457e-03  -6.481145e-03  0 
 -2.569889e-03  -6.713996e-03  0 
 -1.220672e-03  -4.620481e-03  0 
 -2.276689e-03  -6.967839e-03  0 
 -3.453213e-03  -7.805837e-03  0 
 -2.381617e-03  -4.656521e-03  0 
 -1.366913e-03  -3.981681e-03  0 
 -9.784349e-04  -3.926734e-03  0 
 -1.491498e-03  -5.245193e-03  0 
 -3.361044e-03  -7.606683e-03  0 
 -1.832305e-03  -6.250707e-03  0 
 -2.485259e-03  -5.374697e-03  0 
 -2.772238e-03  -6.215638e-03  0 
 -3.615388e-03  -7.983070e-03  0 
 -1.952353e-03  -6.754935e-03  0 
 -1.395367e-03  -5.037937e-03  0 
 -9.471776e-04  -3.633215e-03  0 
VECTORS displacement_ITER13 FLOAT
 -2.537894e-03  -3.668689e-03  0 
 -9.523731e-04  -3.398319e-03  0 
 -3.846266e-03  -8.321936e-03  0 
 -1.725877e-03  -7.122436e-03  0 
 -1.774838e-03  -3.302930e-03  0 
 -1.365150e-03  -3.047010e-03  0 
 -1.105880e-03  -2.942158e-03  0 
 -9.317973e-04  -2.919580e-03  0 
 -8.277667e-04  -3.018013e-03  0 
 -2.849476e-03  -4.909967e-03  0 
 -3.059268e-03  -5.805787e-03  0 
 -3.197068e-03  -6.569354e-03  0 
 -3.327512e-03  -7.258542e-03  0 
 -3.536538e-03  -7.880902e-03  0 
 -1.259553e-03  -4.116514e-03  0 
 -1.390194e-03  -4.608328e-03  0 
 -1.493358e-03  -5.109319e-03  0 
 -1.592549e-03  -5.619316e-03  0 
 -1.645073e-03  -6.215558e-03  0 
 -3.790430e-03  -8.164691e-03  0 
 -3.541245e-03  -7.991454e-03  0 
 -3.162156e-03  -7.849856e-03  0 
 -2.734933e-03  -7.672935e-03  0 
 -2.238072e-03  -7.467580e-03  0 
 -2.181035e-03  -6.125843e-03  0 
 -2.176542e-03  -5.493834e-03  0 
 -2.978415e-03  -7.198159e-03  0 
 -1.336796e-03  -4.770296e-03  0 
 -2.189078e-03  -6.477009e-03  0 
 -2.557996e-03  -6.416533e-03  0 
 -1.922520e-03  -5.931656e-03  0 
 -1.600865e-03  -4.776802e-03  0 
 -2.717244e-03  -7.033818e-03  0 
 -2.041219e-03  -5.674120e-03  0 
 -1.715918e-03  -5.429633e-03  0 
 -3.055643e-03  -6.977958e-03  0 
 -1.627769e-03  -5.616884e-03  0 
 -3.142499e-03  -7.559930e-03  0 
 -2.739032e-03  -7.303405e-03  0 
 -1.194222e-03  -3.928392e-03  0 
 -1.788643e-03  -4.325069e-03  0 
 -2.326633e-03  -6.472717e-03  0 
 -2.571489e-03  -6.707099e-03  0 
 -1.228088e-03  -4.604655e-03  0 
 -2.294288e-03  -6.956619e-03  0 
 -3.423614e-03  -7.773960e-03  0 
 -2.376439e-03  -4.656422e-03  0 
 -1.379452e-03  -3.972445e-03  0 
 -9.805702e-04  -3.922027e-03  0 
 -1.499120e-03  -5.228740e-03  0 
 -3.337659e-03  -7.574955e-03  0 
 -1.846620e-03  -6.236262e-03  0 
 -2.484452e-03  -5.366011e-03  0 
 -2.768587e-03  -6.203207e-03  0 
 -3.601999e-03  -7.973730e-03  0 
 -1.946938e-03  -6.769495e-03  0 
 -1.404751e-03  -5.011275e-03  0 
 -9.679306e-04  -3.643692e-03  0 
VECTORS displacement_ITER14 FLOAT
 -2.523945e-03  -3.673149e-03  0 
 -9.538554e-04  -3.394824e-03  0 
 -3.832942e-03  -8.313215e-03  0 
 -1.722020e-03  -7.100732e-03  0 
 -1.783657e-03  -3.299737e-03  0 
 -1.375017e-03  -3.048914e-03  0 
 -1.099523e-03  -2.936221e-03  0 
 -9.212173e-04  -2.926745e-03  0 
 -8.222189e-04  -3.015098e-03  0 
 -2.844993e-03  -4.905510e-03  0 
 -3.071243e-03  -5.795845e-03  0 
 -3.203729e-03  -6.576779e-03  0 
 -3.339283e-03  -7.280428e-03  0 
 -3.535415e-03  -7.893753e-03  0 
 -1.245165e-03  -4.127849e-03  0 
 -1.387332e-03  -4.620525e-03  0 
 -1.491603e-03  -5.125985e-03  0 
 -1.587756e-03  -5.633905e-03  0 
 -1.654901e-03  -6.207073e-03  0 
 -3.791387e-03  -8.182360e-03  0 
 -3.548483e-03  -8.020814e-03  0 
 -3.169750e-03  -7.878357e-03  0 
 -2.728366e-03  -7.690034e-03  0 
 -2.231666e-03  -7.452244e-03  0 
 -2.175493e-03  -6.132445e-03  0 
 -2.175681e-03  -5.496737e-03  0 
 -2.981283e-03  -7.214383e-03  0 
 -1.331112e-03  -4.776446e-03  0 
 -2.177633e-03  -6.482543e-03  0 