# vtk DataFile Version 3.1
this is an vtk file created by FEMAC
ASCII
DATASET UNSTRUCTURED_GRID
POINTS 55 FLOAT
0.000000 4.000000 0.000000
1.000000 4.000000 0.000000
0.000000 5.000000 0.000000
1.000000 5.000000 0.000000
0.166667 4.000000 0.000000
0.333333 4.000000 0.000000
0.500000 4.000000 0.000000
0.666667 4.000000 0.000000
0.833333 4.000000 0.000000
0.166667 5.000000 0.000000
0.333333 5.000000 0.000000
0.500000 5.000000 0.000000
0.666667 5.000000 0.000000
0.833333 5.000000 0.000000
0.000000 4.166667 0.000000
0.000000 4.333333 0.000000
0.000000 4.500000 0.000000
0.000000 4.666667 0.000000
0.000000 4.833333 0.000000
1.000000 4.166667 0.000000
1.000000 4.333333 0.000000
1.000000 4.500000 0.000000
1.000000 4.666667 0.000000
1.000000 4.833333 0.000000
0.357609 4.499028 0.000000
0.617149 4.666076 0.000000
0.608420 4.328744 0.000000
0.265181 4.762188 0.000000
0.261987 4.236435 0.000000
0.869358 4.770672 0.000000
0.867634 4.227817 0.000000
0.144877 4.863709 0.000000
0.143875 4.135859 0.000000
0.797424 4.393692 0.000000
0.799754 4.601780 0.000000
0.631909 4.497673 0.000000
0.210492 4.499636 0.000000
0.438608 4.728690 0.000000
0.432863 4.268597 0.000000
0.571692 4.844620 0.000000
0.473901 4.569780 0.000000
0.567544 4.153356 0.000000
0.470333 4.422752 0.000000
0.134180 4.678891 0.000000
0.133379 4.320660 0.000000
0.311111 4.374518 0.000000
0.313329 4.623035 0.000000
0.763647 4.879362 0.000000
0.761895 4.119542 0.000000
0.719527 4.252744 0.000000
0.345766 4.885601 0.000000
0.343753 4.113464 0.000000
0.724164 4.744214 0.000000
0.893268 4.896674 0.000000
0.892572 4.102805 0.000000
CELLS 84 336 
3 31  9  2
3 18 31  2
3 4 32  0
3 32 14  0
3 21 34 33
3 35 26 33
3 40 25 37
3 25 40 35
3 26 42 38
3 42 26 35
3 43 27 31
3 28 44 32
3 45 28 38
3 27 46 37
3 12 47 13
3 47 12 39
3 48  7  8
3 7 48 41
3 26 49 33
3 49 30 33
3 49 26 41
3 27 50 31
3 51 28 32
3 52 25 34
3 29 52 34
3 25 52 39
3 35 34 25
3 33 34 35
3 42 40 24
3 35 40 42
3 46 36 24
3 36 45 24
3 40 46 24
3 40 37 46
3 45 42 24
3 38 42 45
3 47 52 29
3 47 39 52
3 49 48 30
3 41 48 49
3 21 22 34
3 22 29 34
3 23 29 22
3 50 11 10
3 50 27 37
3 6 51  5
3 38 28 51
3 16 43 17
3 16 36 43
3 46 27 43
3 43 36 46
3 44 16 15
3 36 16 44
3 28 45 44
3 36 44 45
3 11 39 12
3 50 39 11
3 25 39 37
3 50 37 39
3 41  6  7
3 6 41 51
3 38 41 26
3 38 51 41
3 20 21 33
3 30 20 33
3 30 19 20
3 15 14 44
3 14 32 44
3 4  5 51
3 32  4 51
3 18 17 43
3 31 18 43
3 10  9 50
3 9 31 50
3 13 53  3
3 53 23  3
3 53 13 47
3 54  8  1
3 19 54  1
3 8 54 48
3 53 29 23
3 47 29 53
3 30 54 19
3 30 48 54
CELL_TYPES 84
5 5 5 5 5 5 5 5 5 5 5 5 5 5 5 5 5 5 5 5 5 5 5 5 5 5 5 5 5 5 5 5 5 5 5 5 5 5 5 5 5 5 5 5 5 5 5 5 5 5 5 5 5 5 5 5 5 5 5 5 5 5 5 5 5 5 5 5 5 5 5 5 5 5 5 5 5 5 5 5 5 5 5 5 
POINT_DATA 55
VECTORS displacement_ITER1 FLOAT
 -1.168318e-20  -2.134106e-21  0 
 1.712607e-04  -1.800486e-03  0 
 -3.560343e-21  -3.214343e-22  0 
 1.293418e-03  -1.905261e-03  0 
 -1.256221e-04  -1.922297e-04  0 
 -2.019648e-04  -3.884659e-04  0 
 -2.384628e-04  -6.046386e-04  0 
 -1.984595e-04  -8.640234e-04  0 
 -8.681964e-05  -1.201526e-03  0 
 2.739773e-04  -3.241473e-04  0 
 4.779266e-04  -5.490229e-04  0 
 6.656888e-04  -7.475413e-04  0 
 8.391706e-04  -9.927912e-04  0 
 1.053168e-03  -1.362477e-03  0 
 0  0  0 
 0  0  0 
 0  0  0 
 0  0  0 
 0  0  0 
 6.305222e-06  -1.368343e-03  0 
 4.505498e-05  -1.268319e-03  0 
 1.681682e-04  -1.277167e-03  0 
 3.741762e-04  -1.400126e-03  0 
 7.024072e-04  -1.626289e-03  0 
 1.113723e-04  -3.547923e-04  0 
 2.757672e-04  -7.434601e-04  0 
 8.034409e-05  -7.931984e-04  0 
 1.714996e-04  -2.449532e-04  0 
 -7.318477e-06  -2.214317e-04  0 
 4.944296e-04  -1.234919e-03  0 
 5.581928e-05  -1.240083e-03  0 
 1.135836e-04  -1.439939e-04  0 
 -2.688085e-05  -1.027951e-04  0 
 9.591672e-05  -1.053268e-03  0 
 2.328071e-04  -1.037434e-03  0 
 1.467069e-04  -7.803048e-04  0 
 7.000527e-05  -1.665351e-04  0 
 2.696362e-04  -4.736661e-04  0 
 2.265296e-05  -4.951138e-04  0 
 4.912346e-04  -7.219132e-04  0 
 1.665868e-04  -5.181088e-04  0 
 -3.676494e-05  -7.308048e-04  0 
 1.035507e-04  -5.411136e-04  0 
 6.553623e-05  -9.333708e-05  0 
 1.337448e-05  -7.992783e-05  0 
 5.826460e-05  -2.920422e-04  0 
 1.396967e-04  -2.811774e-04  0 
 6.764735e-04  -1.071355e-03  0 
 2.623860e-05  -1.113692e-03  0 
 5.819345e-05  -1.005755e-03  0 
 3.579040e-04  -4.400711e-04  0 
 -1.018440e-04  -3.544346e-04  0 
 4.119051e-04  -9.410566e-04  0 
 8.137042e-04  -1.392872e-03  0 
 1.053951e-04  -1.418309e-03  0 
VECTORS displacement_ITER2 FLOAT
 -9.162126e-21  -3.386513e-22  0 
 2.582953e-04  -1.830911e-03  0 
 -2.207246e-21  -1.123830e-22  0 
 1.478601e-03  -2.112823e-03  0 
 -1.276476e-04  -1.853250e-04  0 
 -1.992618e-04  -3.832758e-04  0 
 -2.307080e-04  -6.027968e-04  0 
 -1.836621e-04  -8.656792e-04  0 
 -5.468966e-05  -1.194199e-03  0 
 2.839884e-04  -3.394182e-04  0 
 4.979578e-04  -5.788965e-04  0 
 6.969948e-04  -7.833862e-04  0 
 8.872325e-04  -1.029523e-03  0 
 1.141392e-03  -1.423644e-03  0 
 0  0  0 
 0  0  0 
 0  0  0 
 0  0  0 
 0  0  0 
 3.109744e-05  -1.372096e-03  0 
 6.565738e-05  -1.280312e-03  0 
 1.877042e-04  -1.303759e-03  0 
 3.977012e-04  -1.445586e-03  0 
 7.388878e-04  -1.716447e-03  0 
 1.187216e-04  -3.637726e-04  0 
 2.907011e-04  -7.649443e-04  0 
 9.326378e-05  -8.104295e-04  0 
 1.790053e-04  -2.545304e-04  0 
 -4.067344e-06  -2.230151e-04  0 
 5.160713e-04  -1.282732e-03  0 
 7.878668e-05  -1.258807e-03  0 
 1.178584e-04  -1.508032e-04  0 
 -2.647929e-05  -9.995176e-05  0 
 1.101249e-04  -1.074892e-03  0 
 2.460032e-04  -1.068751e-03  0 
 1.565740e-04  -8.010322e-04  0 
 7.468398e-05  -1.701538e-04  0 
 2.848667e-04  -4.864392e-04  0 
 3.085274e-05  -5.040985e-04  0 
 5.194931e-04  -7.436427e-04  0 
 1.762904e-04  -5.317829e-04  0 
 -2.264616e-05  -7.395511e-04  0 
 1.120755e-04  -5.548735e-04  0 
 6.830489e-05  -9.695470e-05  0 
 1.473359e-05  -8.003017e-05  0 
 6.356115e-05  -2.983354e-04  0 
 1.478568e-04  -2.882238e-04  0 
 7.183473e-04  -1.101929e-03  0 
 5.356621e-05  -1.128547e-03  0 
 7.638803e-05  -1.024310e-03  0 
 3.731232e-04  -4.605149e-04  0 
 -9.736520e-05  -3.540095e-04  0 
 4.328849e-04  -9.693882e-04  0 
 8.678856e-04  -1.450346e-03  0 
 1.512158e-04  -1.444984e-03  0 
VECTORS displacement_ITER3 FLOAT
 -5.298039e-21  1.885299e-21  0 
 2.881827e-04  -1.827401e-03  0 
 -3.350083e-22  1.252489e-22  0 
 1.593446e-03  -2.244479e-03  0 
 -1.318782e-04  -1.905662e-04  0 
 -2.031449e-04  -3.907837e-04  0 
 -2.339601e-04  -6.123506e-04  0 
 -1.861592e-04  -8.729065e-04  0 
 -4.841322e-05  -1.190390e-03  0 
 2.844515e-04  -3.439708e-04  0 
 5.057541e-04  -5.823761e-04  0 
 7.123786e-04  -7.881106e-04  0 
 9.131516e-04  -1.038776e-03  0 
 1.193237e-03  -1.454147e-03  0 
 0  0  0 
 0  0  0 
 0  0  0 
 0  0  0 
 0  0  0 
 3.111098e-05  -1.369213e-03  0 
 6.647912e-05  -1.291073e-03  0 
 1.850530e-04  -1.312798e-03  0 
 3.997430e-04  -1.463110e-03  0 
 7.537433e-04  -1.768373e-03  0 
 1.189646e-04  -3.655470e-04  0 
 2.918665e-04  -7.698740e-04  0 
 9.108722e-05  -8.183087e-04  0 
 1.825113e-04  -2.533210e-04  0 
 -4.729921e-06  -2.264620e-04  0 
 5.185046e-04  -1.303264e-03  0 
 7.640197e-05  -1.266731e-03  0 
 1.193936e-04  -1.521815e-04  0 
 -2.714635e-05  -1.018723e-04  0 
 1.086784e-04  -1.085103e-03  0 
 2.432203e-04  -1.080150e-03  0 
 1.546199e-04  -8.091701e-04  0 
 7.559601e-05  -1.700122e-04  0 
 2.897168e-04  -4.850037e-04  0 
 2.916531e-05  -5.104690e-04  0 
 5.302643e-04  -7.438243e-04  0 
 1.767328e-04  -5.346580e-04  0 
 -2.507728e-05  -7.483443e-04  0 
 1.106391e-04  -5.600135e-04  0 
 6.964690e-05  -9.626433e-05  0 
 1.496747e-05  -8.067942e-05  0 
 6.317696e-05  -3.011238e-04  0 
 1.502384e-04  -2.872354e-04  0 
 7.366303e-04  -1.110144e-03  0 
 5.393027e-05  -1.137295e-03  0 
 7.386559e-05  -1.033449e-03  0 
 3.795574e-04  -4.597431e-04  0 
 -9.990415e-05  -3.610681e-04  0 
 4.362455e-04  -9.770197e-04  0 
 8.947828e-04  -1.479663e-03  0 
 1.590713e-04  -1.452555e-03  0 
VECTORS displacement_ITER4 FLOAT
 -3.037679e-21  2.754500e-21  0 
 3.057507e-04  -1.794675e-03  0 
 7.446426e-22  3.913413e-22  0 
 1.663976e-03  -2.308530e-03  0 
 -1.301501e-04  -1.914932e-04  0 
 -2.006802e-04  -3.882319e-04  0 
 -2.312688e-04  -6.084208e-04  0 
 -1.836091e-04  -8.645068e-04  0 
 -4.323543e-05  -1.175578e-03  0 
 2.867186e-04  -3.446382e-04  0 
 5.109452e-04  -5.835029e-04  0 
 7.210224e-04  -7.878827e-04  0 
 9.288767e-04  -1.039368e-03  0 
 1.225698e-03  -1.465868e-03  0 
 0  0  0 
 0  0  0 
 0  0  0 
 0  0  0 
 0  0  0 
 3.221100e-05  -1.353604e-03  0 
 6.540324e-05  -1.285052e-03  0 
 1.847003e-04  -1.311415e-03  0 
 4.018742e-04  -1.469054e-03  0 
 7.647868e-04  -1.791653e-03  0 
 1.183676e-04  -3.616208e-04  0 
 2.933378e-04  -7.658719e-04  0 
 8.872154e-05  -8.136179e-04  0 
 1.841058e-04  -2.501151e-04  0 
 -5.195044e-06  -2.252534e-04  0 
 5.224763e-04  -1.308204e-03  0 
 7.456908e-05  -1.257940e-03  0 
 1.203592e-04  -1.508968e-04  0 
 -2.686576e-05  -1.023060e-04  0 
 1.062884e-04  -1.080320e-03  0 
 2.421593e-04  -1.079520e-03  0 
 1.524357e-04  -8.055507e-04  0 
 7.559099e-05  -1.671398e-04  0 
 2.928730e-04  -4.797011e-04  0 
 2.778250e-05  -5.073568e-04  0 
 5.378270e-04  -7.389757e-04  0 
 1.764799e-04  -5.300214e-04  0 
 -2.575978e-05  -7.434984e-04  0 
 1.087573e-04  -5.561912e-04  0 
 7.006117e-05  -9.416379e-05  0 
 1.498834e-05  -7.981136e-05  0 
 6.223928e-05  -2.985090e-04  0 
 1.510836e-04  -2.826852e-04  0 
 7.498041e-04  -1.108252e-03  0 
 5.418747e-05  -1.128639e-03  0 
 7.176988e-05  -1.027143e-03  0 
 3.835536e-04  -4.579131e-04  0 
 -9.946436e-05  -3.591962e-04  0 
 4.400203e-04  -9.745660e-04  0 
 9.141604e-04  -1.488609e-03  0 
 1.612764e-04  -1.439905e-03  0 
VECTORS displacement_ITER5 FLOAT
 -2.019283e-21  2.992284e-21  0 
 3.333070e-04  -1.738703e-03  0 
 1.022422e-21  5.074641e-22  0 
 1.695703e-03  -2.322995e-03  0 
 -1.263574e-04  -1.859782e-04  0 
 -1.930753e-04  -3.792736e-04  0 
 -2.202612e-04  -5.962694e-04  0 
 -1.692248e-04  -8.468081e-04  0 
 -2.413723e-05  -1.149194e-03  0 
 2.862818e-04  -3.410342e-04  0 
 5.095542e-04  -5.794642e-04  0 
 7.202716e-04  -7.822880e-04  0 
 9.319731e-04  -1.032533e-03  0 
 1.238900e-03  -1.462067e-03  0 
 0  0  0 
 0  0  0 
 0  0  0 
 0  0  0 
 0  0  0 
 4.203956e-05  -1.320230e-03  0 
 6.772740e-05  -1.260005e-03  0 
 1.868032e-04  -1.295333e-03  0 
 4.040311e-04  -1.459225e-03  0 
 7.697176e-04  -1.790462e-03  0 
 1.182233e-04  -3.558145e-04  0 
 2.933157e-04  -7.551797e-04  0 
 8.983405e-05  -8.017156e-04  0 
 1.835567e-04  -2.461727e-04  0 
 -3.442835e-06  -2.219986e-04  0 
 5.242109e-04  -1.299130e-03  0 
 7.912232e-05  -1.234456e-03  0 
 1.200516e-04  -1.484161e-04  0 
 -2.556162e-05  -1.001605e-04  0 
 1.059304e-04  -1.063136e-03  0 
 2.418115e-04  -1.067269e-03  0 
 1.511873e-04  -7.937427e-04  0 
 7.574025e-05  -1.642063e-04  0 
 2.929244e-04  -4.718031e-04  0 
 3.009648e-05  -5.003767e-04  0 
 5.391158e-04  -7.295989e-04  0 
 1.758275e-04  -5.213815e-04  0 
 -1.960864e-05  -7.319539e-04  0 
 1.086454e-04  -5.481755e-04  0 
 6.989269e-05  -9.230969e-05  0 
 1.552697e-05  -7.854237e-05  0 
 6.284638e-05  -2.943597e-04  0 
 1.508629e-04  -2.773329e-04  0 
 7.546498e-04  -1.097447e-03  0 
 6.309747e-05  -1.108839e-03  0 
 7.509383e-05  -1.010782e-03  0 
 3.825860e-04  -4.533273e-04  0 
 -9.445040e-05  -3.528578e-04  0 
 4.410103e-04  -9.633194e-04  0 
 9.230195e-04  -1.481236e-03  0 
 1.717340e-04  -1.410395e-03  0 
VECTORS displacement_ITER6 FLOAT
 -1.525369e-21  2.664589e-21  0 
 3.605682e-04  -1.669213e-03  0 
 8.829313e-22  6.133496e-22  0 
 1.709620e-03  -2.320274e-03  0 
 -1.235540e-04  -1.820979e-04  0 
 -1.868849e-04  -3.721624e-04  0 
 -2.101200e-04  -5.848977e-04  0 
 -1.546249e-04  -8.288776e-04  0 
 -2.550566e-06  -1.118372e-03  0 
 2.843185e-04  -3.378455e-04  0 
 5.070464e-04  -5.720294e-04  0 
 7.180809e-04  -7.723422e-04  0 
 9.315163e-04  -1.020837e-03  0 
 1.243463e-03  -1.451726e-03  0 
 0  0  0 
 0  0  0 
 0  0  0 
 0  0  0 
 0  0  0 
 5.135821e-05  -1.279389e-03  0 
 7.019473e-05  -1.231654e-03  0 
 1.875927e-04  -1.275333e-03  0 
 4.039708e-04  -1.443948e-03  0 
 7.700878e-04  -1.779615e-03  0 
 1.173349e-04  -3.493308e-04  0 
 2.916464e-04  -7.425483e-04  0 
 8.964479e-05  -7.881480e-04  0 
 1.827668e-04  -2.409537e-04  0 
 -1.926044e-06  -2.190608e-04  0 
 5.233197e-04  -1.285418e-03  0 
 8.184208e-05  -1.206115e-03  0 
 1.193720e-04  -1.459984e-04  0 
 -2.438894e-05  -9.846365e-05  0 
 1.045350e-04  -1.043104e-03  0 
 2.401428e-04  -1.051820e-03  0 
 1.488716e-04  -7.799892e-04  0 
 7.554373e-05  -1.610611e-04  0 
 2.916859e-04  -4.624298e-04  0 
 3.175056e-05  -4.934326e-04  0 
 5.379928e-04  -7.177334e-04  0 
 1.741139e-04  -5.115674e-04  0 
 -1.444115e-05  -7.204422e-04  0 
 1.075989e-04  -5.391365e-04  0 
 6.961754e-05  -9.008994e-05  0 
 1.601880e-05  -7.740099e-05  0 
 6.307382e-05  -2.900576e-04  0 
 1.499648e-04  -2.712138e-04  0 
 7.549950e-04  -1.083600e-03  0 
 7.069671e-05  -1.086552e-03  0 
 7.674063e-05  -9.919688e-04  0 
 3.809920e-04  -4.458855e-04  0 
 -9.032882e-05  -3.477442e-04  0 
 4.396595e-04  -9.494751e-04  0 
 9.254300e-04  -1.468260e-03  0 
 1.807939e-04  -1.373399e-03  0 
VECTORS displacement_ITER7 FLOAT
 -1.262408e-21  2.270191e-21  0 
 3.902977e-04  -1.593794e-03  0 
 6.230041e-22  6.489704e-22  0 
 1.707395e-03  -2.296605e-03  0 
 -1.183963e-04  -1.771461e-04  0 
 -1.777311e-04  -3.620841e-04  0 
 -1.967043e-04  -5.695686e-04  0 
 -1.368294e-04  -8.065952e-04  0 
 2.169944e-05  -1.081736e-03  0 
 2.799920e-04  -3.323022e-04  0 
 5.003233e-04  -5.610606e-04  0 
 7.102382e-04  -7.578299e-04  0 
 9.236882e-04  -1.002747e-03  0 
 1.237425e-03  -1.430875e-03  0 
 0  0  0 
 0  0  0 
 0  0  0 
 0  0  0 
 0  0  0 
 6.193983e-05  -1.232479e-03  0 
 7.503187e-05  -1.196978e-03  0 
 1.878658e-04  -1.245689e-03  0 
 4.013337e-04  -1.417395e-03  0 
 7.653306e-04  -1.755854e-03  0 
 1.164345e-04  -3.416036e-04  0 
 2.883560e-04  -7.257424e-04  0 
 9.088249e-05  -7.703380e-04  0 
 1.807813e-04  -2.350011e-04  0 
 3.211707e-07  -2.150619e-04  0 
 5.187546e-04  -1.262399e-03  0 
 8.644997e-05  -1.171564e-03  0 
 1.178489e-04  -1.430203e-04  0 
 -2.252375e-05  -9.657061e-05  0 
 1.049286e-04  -1.017396e-03  0 
 2.374596e-04  -1.029342e-03  0 
 1.471005e-04  -7.622455e-04  0 
 7.524956e-05  -1.576351e-04  0 
 2.885412e-04  -4.509671e-04  0 
 3.470284e-05  -4.838315e-04  0 
 5.327737e-04  -7.017849e-04  0 
 1.720898e-04  -4.995770e-04  0 
 -6.966455e-06  -7.047944e-04  0 
 1.071280e-04  -5.275674e-04  0 
 6.901491e-05  -8.788061e-05  0 
 1.668485e-05  -7.617027e-05  0 
 6.369277e-05  -2.846516e-04  0 
 1.484928e-04  -2.644019e-04  0 
 7.496382e-04  -1.062668e-03  0 
 8.051190e-05  -1.058796e-03  0 
 8.026530e-05  -9.678364e-04  0 
 3.763600e-04  -4.360723e-04  0 
 -8.424440e-05  -3.400655e-04  0 
 4.353003e-04  -9.295223e-04  0 
 9.209701e-04  -1.444788e-03  0 
 1.918630e-04  -1.330617e-03  0 
VECTORS displacement_ITER8 FLOAT
 -1.264141e-21  1.813970e-21  0 
 4.227614e-04  -1.525100e-03  0 
 2.207282e-22  6.300927e-22  0 
 1.699747e-03  -2.268972e-03  0 
 -1.127841e-04  -1.706682e-04  0 
 -1.677696e-04  -3.504306e-04  0 
 -1.825009e-04  -5.532047e-04  0 
 -1.182622e-04  -7.840237e-04  0 
 4.637273e-05  -1.045579e-03  0 
 2.760215e-04  -3.269233e-04  0 
 4.933786e-04  -5.518684e-04  0 
 7.015529e-04  -7.450113e-04  0 
 9.144953e-04  -9.858727e-04  0 
 1.228540e-03  -1.409383e-03  0 
 0  0  0 
 0  0  0 
 0  0  0 
 0  0  0 
 0  0  0 
 7.517119e-05  -1.187936e-03  0 
 8.147530e-05  -1.163618e-03  0 
 1.888540e-04  -1.217021e-03  0 
 3.987854e-04  -1.390991e-03  0 
 7.602225e-04  -1.730960e-03  0 
 1.160785e-04  -3.347568e-04  0 
 2.855525e-04  -7.102292e-04  0 
 9.362137e-05  -7.534620e-04  0 
 1.786562e-04  -2.302533e-04  0 
 2.895375e-06  -2.107864e-04  0 
 5.142886e-04  -1.239572e-03  0 
 9.353983e-05  -1.139154e-03  0 
 1.163161e-04  -1.404079e-04  0 
 -2.056382e-05  -9.414137e-05  0 
 1.068663e-04  -9.931906e-04  0 
 2.355378e-04  -1.007789e-03  0 
 1.464864e-04  -7.457092e-04  0 
 7.515742e-05  -1.547595e-04  0 
 2.854937e-04  -4.410807e-04  0 
 3.856057e-05  -4.742410e-04  0 
 5.272484e-04  -6.874892e-04  0 
 1.707257e-04  -4.888269e-04  0 
 1.879413e-06  -6.889517e-04  0 
 1.076302e-04  -5.168433e-04  0 
 6.838591e-05  -8.624513e-05  0 
 1.738249e-05  -7.493042e-05  0 
 6.476655e-05  -2.795807e-04  0 
 1.472404e-04  -2.587175e-04  0 
 7.435163e-04  -1.042707e-03  0 
 9.235961e-05  -1.031848e-03  0 
 8.577930e-05  -9.448497e-04  0 
 3.714538e-04  -4.280685e-04  0 
 -7.739845e-05  -3.313269e-04  0 
 4.311601e-04  -9.106500e-04  0 
 9.151272e-04  -1.421181e-03  0 
 2.060128e-04  -1.290760e-03  0 
VECTORS displacement_ITER9 FLOAT
 -1.255808e-21  1.394763e-21  0 
 4.522921e-04  -1.465701e-03  0 
 -1.376669e-22  5.933306e-22  0 
 1.689057e-03  -2.244122e-03  0 
 -1.083978e-04  -1.654984e-04  0 
 -1.595851e-04  -3.412969e-04  0 
 -1.706296e-04  -5.399116e-04  0 
 -1.027333e-04  -7.649773e-04  0 
 6.754422e-05  -1.014866e-03  0 
 2.722942e-04  -3.222953e-04  0 
 4.871146e-04  -5.439074e-04  0 
 6.935041e-04  -7.336446e-04  0 
 9.054988e-04  -9.713483e-04  0 
 1.218683e-03  -1.390544e-03  0 
 0  0  0 
 0  0  0 
 0  0  0 
 0  0  0 
 0  0  0 
 8.684880e-05  -1.150506e-03  0 
 8.669199e-05  -1.135874e-03  0 
 1.896621e-04  -1.193712e-03  0 
 3.958501e-04  -1.368845e-03  0 
 7.544062e-04  -1.708420e-03  0 
 1.156308e-04  -3.293573e-04  0 
 2.827965e-04  -6.976113e-04  0 
 9.580042e-05  -7.397600e-04  0 
 1.767274e-04  -2.263799e-04  0 
 5.013279e-06  -2.075303e-04  0 
 5.096908e-04  -1.220319e-03  0 
 9.960873e-05  -1.112367e-03  0 
 1.149289e-04  -1.382889e-04  0 
 -1.897038e-05  -9.223675e-05  0 
 1.082642e-04  -9.732688e-04  0 
 2.336785e-04  -9.901578e-04  0 
 1.457350e-04  -7.322115e-04  0 
 7.498545e-05  -1.525735e-04  0 
 2.825629e-04  -4.331042e-04  0 
 4.164113e-05  -4.666074e-04  0 
 5.217794e-04  -6.756201e-04  0 
 1.693302e-04  -4.801899e-04  0 
 9.160072e-06  -6.759891e-04  0 
 1.079133e-04  -5.082602e-04  0 
 6.780837e-05  -8.497464e-05  0 
 1.794110e-05  -7.405518e-05  0 
 6.556647e-05  -2.756344e-04  0 
 1.460024e-04  -2.542385e-04  0 
 7.369072e-04  -1.026097e-03  0 
 1.024571e-04  -1.009461e-03  0 
 9.038193e-05  -9.259937e-04  0 
 3.670200e-04  -4.212416e-04  0 
 -7.178230e-05  -3.245789e-04  0 
 4.270023e-04  -8.951548e-04  0 
 9.080343e-04  -1.401022e-03  0 
 2.184193e-04  -1.257446e-03  0 
VECTORS displacement_ITER10 FLOAT
 -1.214948e-21  1.149167e-21  0 
 4.723703e-04  -1.426965e-03  0 
 -3.667187e-22  5.462681e-22  0 
 1.680396e-03  -2.227942e-03  0 
 -1.058398e-04  -1.630389e-04  0 
 -1.546119e-04  -3.363152e-04  0 
 -1.631248e-04  -5.318371e-04  0 
 -9.280155e-05  -7.524435e-04  0 
 8.173381e-05  -9.950353e-04  0 
 2.694281e-04  -3.189075e-04  0 
 4.827398e-04  -5.379189e-04  0 
 6.878712e-04  -7.253525e-04  0 
 8.988966e-04  -9.613550e-04  0 
 1.211083e-03  -1.378225e-03  0 
 0  0  0 
 0  0  0 
 0  0  0 
 0  0  0 
 0  0  0 
 9.415882e-05  -1.126246e-03  0 
 8.929771e-05  -1.117610e-03  0 
 1.897863e-04  -1.178222e-03  0 
 3.934997e-04  -1.354156e-03  0 
 7.492644e-04  -1.693320e-03  0 
 1.150971e-04  -3.260471e-04  0 
 2.803725e-04  -6.894637e-04  0 
 9.692062e-05  -7.311792e-04  0 
 1.753560e-04  -2.236296e-04  0 
 6.274174e-06  -2.058142e-04  0 
 5.057753e-04  -1.207887e-03  0 
 1.032307e-04  -1.095165e-03  0 
 1.139476e-04  -1.367930e-04  0 
 -1.797245e-05  -9.138509e-05  0 
 1.086872e-04  -9.602735e-04  0 
 2.319175e-04  -9.786577e-04  0 
 1.447754e-04  -7.235323e-04  0 
 7.475386e-05  -1.512773e-04  0 
 2.802208e-04  -4.277835e-04  0 
 4.336140e-05  -4.620868e-04  0 
 5.175050e-04  -6.676035e-04  0 
 1.680068e-04  -4.747033e-04  0 
 1.356939e-05  -6.679445e-04  0 
 1.078180e-04  -5.029753e-04  0 
 6.740970e-05  -8.409971e-05  0 
 1.828077e-05  -7.367798e-05  0 
 6.591962e-05  -2.733429e-04  0 
 1.449765e-04  -2.513570e-04  0 
 7.315208e-04  -1.015284e-03  0 
 1.090058e-04  -9.952440e-04  0 
 9.309684e-05  -9.140615e-04  0 
 3.638647e-04  -4.161408e-04  0 
 -6.844271e-05  -3.209554e-04  0 
 4.234664e-04  -8.851228e-04  0 
 9.020455e-04  -1.387894e-03  0 
 2.265742e-04  -1.236079e-03  0 
VECTORS displacement_ITER11 FLOAT
 -1.205456e-21  9.589905e-22  0 
 4.875867e-04  -1.401898e-03  0 
 -5.487852e-22  4.956543e-22  0 
 1.675386e-03  -2.218701e-03  0 
 -1.041010e-04  -1.610257e-04  0 
 -1.512040e-04  -3.325261e-04  0 
 -1.579655e-04  -5.263370e-04  0 
 -8.574540e-05  -7.442755e-04  0 
 9.211631e-05  -9.819677e-04  0 
 2.679280e-04  -3.169211e-04  0 
 4.803024e-04  -5.348266e-04  0 
 6.845712e-04  -7.209112e-04  0 
 8.949172e-04  -9.555594e-04  0 
 1.206492e-03  -1.371080e-03  0 
 0  0  0 
 0  0  0 
 0  0  0 
 0  0  0 
 0  0  0 
 9.963770e-05  -1.109828e-03  0 
 9.127875e-05  -1.105419e-03  0 
 1.898855e-04  -1.168082e-03  0 
 3.921962e-04  -1.345153e-03  0 
 7.463005e-04  -1.684522e-03  0 
 1.148346e-04  -3.241748e-04  0 
 2.788617e-04  -6.846107e-04  0 
 9.796606e-05  -7.259174e-04  0 
 1.744589e-04  -2.221514e-04  0 
 7.170558e-06  -2.046657e-04  0 
 5.034379e-04  -1.200466e-03  0 
 1.061240e-04  -1.084069e-03  0 
 1.133571e-04  -1.359045e-04  0 
 -1.731301e-05  -9.069186e-05  0 
 1.091492e-04  -9.520411e-04  0 
 2.307846e-04  -9.715171e-04  0 
 1.442503e-04  -7.182422e-04  0 
 7.464757e-05  -1.506069e-04  0 
 2.787736e-04  -4.247647e-04  0 
 4.475696e-05  -4.593057e-04  0 
 5.149736e-04  -6.630538e-04  0 
 1.672107e-04  -4.714952e-04  0 
 1.694265e-05  -6.628641e-04  0 
 1.079191e-04  -4.998536e-04  0 
 6.714657e-05  -8.366278e-05  0 
 1.850151e-05  -7.344849e-05  0 
 6.625728e-05  -2.720397e-04  0 
 1.443405e-04  -2.497635e-04  0 
 7.282913e-04  -1.008941e-03  0 
 1.141071e-04  -9.862640e-04  0 
 9.533794e-05  -9.065979e-04  0 
 3.619684e-04  -4.134649e-04  0 
 -6.606453e-05  -3.183098e-04  0 
 4.213201e-04  -8.791426e-04  0 
 8.985119e-04  -1.380207e-03  0 
 2.331191e-04  -1.222387e-03  0 
VECTORS displacement_ITER12 FLOAT
 -1.138939e-21  8.586568e-22  0 
 4.958981e-04  -1.389184e-03  0 
 -6.114389e-22  4.634997e-22  0 
 1.672680e-03  -2.214795e-03  0 
 -1.032303e-04  -1.600967e-04  0 
 -1.494542e-04  -3.307975e-04  0 
 -1.552967e-04  -5.239159e-04  0 
 -8.205111e-05  -7.406615e-04  0 
 9.756864e-05  -9.755876e-04  0 
 2.671814e-04  -3.159325e-04  0 
 4.790937e-04  -5.332584e-04  0 
 6.829132e-04  -7.186981e-04  0 
 8.929122e-04  -9.525937e-04  0 
 1.204217e-03  -1.367560e-03  0 
 0  0  0 
 0  0  0 
 0  0  0 
 0  0  0 
 0  0  0 
 1.022775e-04  -1.101498e-03  0 
 9.223293e-05  -1.099357e-03  0 
 1.896855e-04  -1.163033e-03  0 
 3.912746e-04  -1.340685e-03  0 
 7.447660e-04  -1.680334e-03  0 
 1.146732e-04  -3.233688e-04  0 
 2.779688e-04  -6.822750e-04  0 
 9.844596e-05  -7.235122e-04  0 
 1.739933e-04  -2.214341e-04  0 
 7.648423e-06  -2.042481e-04  0 
 5.020630e-04  -1.196852e-03  0 
 1.074985e-04  -1.078630e-03  0 
 1.130566e-04  -1.354672e-04  0 
 -1.696789e-05  -9.042153e-05  0 
 1.092700e-04  -9.480948e-04  0 
 2.300085e-04  -9.680478e-04  0 
 1.438771e-04  -7.157630e-04  0 
 7.459416e-05  -1.503614e-04  0 
 2.779900e-04  -4.232957e-04  0 
 4.549236e-05  -4.581634e-04  0 
 5.136334e-04  -6.607890e-04  0 
 1.667396e-04  -4.700135e-04  0 
 1.870907e-05  -6.606732e-04  0 
 1.079269e-04  -4.984754e-04  0 
 6.701709e-05  -8.347428e-05  0 
 1.862506e-05  -7.341220e-05  0 
 6.643550e-05  -2.715564e-04  0 
 1.439972e-04  -2.490375e-04  0 
 7.265194e-04  -1.005815e-03  0 
 1.167296e-04  -9.820824e-04  0 
 9.641906e-05  -9.031031e-04  0 
 3.609987e-04  -4.121198e-04  0 
 -6.481954e-05  -3.171898e-04  0 
 4.200816e-04  -8.762293e-04  0 
 8.965448e-04  -1.376667e-03  0 
 2.365345e-04  -1.215751e-03  0 
VECTORS displacement_ITER13 FLOAT
 -1.053507e-21  7.930229e-22  0 
 5.013257e-04  -1.380427e-03  0 
 -6.229495e-22  4.363606e-22  0 
 1.670750e-03  -2.211884e-03  0 
 -1.025494e-04  -1.594601e-04  0 
 -1.481283e-04  -3.295587e-04  0 
 -1.533164e-04  -5.220897e-04  0 
 -7.940980e-05  -7.380048e-04  0 
 1.011904e-04  -9.710615e-04  0 
 2.665946e-04  -3.151969e-04  0 
 4.781372e-04  -5.319773e-04  0 
 6.816179e-04  -7.169896e-04  0 
 8.914192e-04  -9.504259e-04  0 
 1.202549e-03  -1.364912e-03  0 
 0  0  0 
 0  0  0 
 0  0  0 
 0  0  0 
 0  0  0 
 1.039277e-04  -1.095670e-03  0 
 9.291120e-05  -1.095022e-03  0 
 1.896195e-04  -1.159476e-03  0 
 3.906191e-04  -1.337450e-03  0 
 7.435761e-04  -1.677265e-03  0 
 1.145365e-04  -3.227324e-04  0 
 2.773269e-04  -6.805377e-04  0 
 9.874922e-05  -7.216734e-04  0 
 1.736533e-04  -2.208745e-04  0 
 7.986525e-06  -2.039377e-04  0 
 5.010472e-04  -1.194212e-03  0 
 1.084037e-04  -1.074649e-03  0 
 1.128290e-04  -1.351428e-04  0 
 -1.670918e-05  -9.024925e-05  0 
 1.093488e-04  -9.451821e-04  0 
 2.294844e-04  -9.655332e-04  0 
 1.435982e-04  -7.139028e-04  0 
 7.454289e-05  -1.501537e-04  0 
 2.774124e-04  -4.221752e-04  0 
 4.599017e-05  -4.572743e-04  0 
 5.126273e-04  -6.590752e-04  0 
 1.663868e-04  -4.688807e-04  0 
 1.994679e-05  -6.589888e-04  0 
 1.079028e-04  -4.974049e-04  0 
 6.692003e-05  -8.331816e-05  0 
 1.871325e-05  -7.338439e-05  0 
 6.654320e-05  -2.711658e-04  0 
 1.437385e-04  -2.484680e-04  0 
 7.252287e-04  -1.003492e-03  0 
 1.185013e-04  -9.789521e-04  0 
 9.713729e-05  -9.004672e-04  0 
 3.602620e-04  -4.110594e-04  0 
 -6.391332e-05  -3.163731e-04  0 
 4.191766e-04  -8.740780e-04  0 
 8.950934e-04  -1.374011e-03  0 
 2.387503e-04  -1.211023e-03  0 
VECTORS displacement_ITER14 FLOAT
 -9.565868e-22  7.405835e-22  0 
 5.050168e-04  -1.374815e-03  0 
 -6.084053e-22  4.068482e-22  0 
 1.669668e-03  -2.210607e-03  0 
 -1.021990e-04  -1.591133e-04  0 
 -1.473860e-04  -3.288739e-04  0 
 -1.521308e-04  -5.210072e-04  0 
 -7.770130e-05  -7.364126e-04  0 
 1.036519e-04  -9.682863e-04  0 
 2.662506e-04  -3.147840e-04  0 
 4.775285e-04  -5.312339e-04  0 
 6.808117e-04  -7.160496e-04  0 
 8.905512e-04  -9.493423e-04  0 
 1.201605e-03  -1.363633e-03  0 
 0  0  0 
 0  0  0 
 0  0  0 
 0  0  0 
 0  0  0 
 1.051425e-04  -1.092061e-03  0 
 9.340444e-05  -1.092555e-03  0 
 1.896731e-04  -1.157563e-03  0 
 3.902958e-04  -1.335724e-03  0 
 7.428483e-04  -1.675736e-03  0 
 1.144551e-04  -3.224376e-04  0 
 2.769366e-04  -6.796582e-04  0 
 9.895515e-05  -7.206896e-04  0 
 1.734484e-04  -2.205955e-04  0 
 8.186268e-06  -2.037960e-04  0 
 5.004296e-04  -1.192899e-03  0 
 1.090289e-04  -1.072326e-03  0 
 1.126927e-04  -1.349760e-04  0 
 -1.656509e-05  -9.015844e-05  0 
 1.094303e-04  -9.435662e-04  0 
 2.292078e-04  -9.642221e-04  0 
 1.434399e-04  -7.129213e-04  0 
 7.451353e-05  -1.500799e-04  0 
 2.770588e-04  -4.216063e-04  0 
 4.630099e-05  -4.568433e-04  0 
 5.120000e-04  -6.581763e-04  0 
 1.661698e-04  -4.683161e-04  0 
 2.072838e-05  -6.580779e-04  0 
 1.078963e-04  -4.968720e-04  0 
 6.686235e-05  -8.325452e-05  0 
 1.876365e-05  -7.338932e-05  0 
 6.661386e-05  -2.710038e-04  0 
 1.435809e-04  -2.482004e-04  0 
 7.244494e-04  -1.002341e-03  0 
 1.196908e-04  -9.771390e-04  0 
 9.761769e-05  -8.989960e-04  0 
 3.598080e-04  -4.104822e-04  0 
 -6.339807e-05  -3.159487e-04  0 
 4.186184e-04  -8.729929e-04  0 
 8.942177e-04  -1.372730e-03  0 
 2.402874e-04  -1.208126e-03  0 
VECTORS displacement_ITER15 FLOAT
 -8.752839e-22  6.758180e-22  0 
 5.071706e-04  -1.371716e-03  0 
 -5.809807e-22  3.769003e-22  0 
 1.668772e-03  -2.209815e-03  0 
 -1.020169e-04  -1.589647e-04  0 
 -1.470059e-04  -3.285724e-04  0 
 -1.515238e-04  -5.205051e-04  0 
 -7.677963e-05  -7.355947e-04  0 
 1.050794e-04  -9.668144e-04  0 
 2.660949e-04  -3.146162e-04  0 
 4.771905e-04  -5.308607e-04  0 
 6.803415e-04  -7.155065e-04  0 
 8.899751e-04  -9.486283e-04  0 
 1.200913e-03  -1.362778e-03  0 
 0  0  0 
 0  0  0 
 0  0  0 
 0  0  0 
 0  0  0 
 1.058953e-04  -1.090141e-03  0 
 9.365407e-05  -1.091266e-03  0 
 1.896538e-04  -1.156464e-03  0 
 3.900153e-04  -1.334665e-03  0 
 7.423061e-04  -1.674642e-03  0 
 1.144176e-04  -3.223218e-04  0 
 2.766985e-04  -6.792018e-04  0 
 9.908666e-05  -7.202236e-04  0 
 1.733353e-04  -2.204736e-04  0 
 8.298791e-06  -2.037505e-04  0 
 4.999996e-04  -1.192087e-03  0 
 1.093976e-04  -1.071151e-03  0 
 1.126183e-04  -1.349080e-04  0 
 -1.648548e-05  -9.013002e-05  0 
 1.094857e-04  -9.427363e-04  0 
 2.290191e-04  -9.634970e-04  0 
 1.433585e-04  -7.124359e-04  0 
 7.450126e-05  -1.500680e-04  0 
 2.768566e-04  -4.213361e-04  0 
 4.647896e-05  -4.566615e-04  0 
 5.116140e-04  -6.576842e-04  0 
 1.660533e-04  -4.680581e-04  0 
 2.115327e-05  -6.576578e-04  0 
 1.079059e-04  -4.966377e-04  0 
 6.683141e-05  -8.323875e-05  0 
 1.879362e-05  -7.340866e-05  0 
 6.665995e-05  -2.709537e-04  0 
 1.434963e-04  -2.480937e-04  0 
 7.238867e-04  -1.001641e-03  0 
 1.203687e-04  -9.762394e-04  0 
 9.790111e-05  -8.982768e-04  0 
 3.595638e-04  -4.102046e-04  0 
 -6.312496e-05  -3.157681e-04  0 
 4.182562e-04  -8.723841e-04  0 
 8.935303e-04  -1.371923e-03  0 
 2.411936e-04  -1.206593e-03  0 
VECTORS displacement_ITER16 FLOAT
 -7.874693e-22  6.265306e-22  0 
 5.084187e-04  -1.370011e-03  0 
 -5.350192e-22  3.453389e-22  0 
 1.668097e-03  -2.209056e-03  0 
 -1.018103e-04  -1.587452e-04  0 
 -1.466287e-04  -3.282442e-04  0 
 -1.510023e-04  -5.200733e-04  0 
 -7.611521e-05  -7.349656e-04  0 
 1.059710e-04  -9.658691e-04  0 
 2.660044e-04  -3.145073e-04  0 
 4.769720e-04  -5.306603e-04  0 
 6.800405e-04  -7.152021e-04  0 
 8.895457e-04  -9.481718e-04  0 
 1.200377e-03  -1.362169e-03  0 
 0  0  0 
 0  0  0 
 0  0  0 
 0  0  0 
 0  0  0 
 1.064834e-04  -1.089105e-03  0 
 9.391457e-05  -1.090324e-03  0 
 1.897188e-04  -1.155579e-03  0 
 3.898937e-04  -1.333900e-03  0 
 7.419685e-04  -1.673844e-03  0 
 1.144233e-04  -3.222458e-04  0 
 2.765731e-04  -6.788939e-04  0 
 9.927618e-05  -7.198644e-04  0 
 1.732608e-04  -2.204164e-04  0 
 8.409531e-06  -2.036845e-04  0 
 4.997557e-04  -1.191500e-03  0 
 1.098041e-04  -1.070382e-03  0 
 1.125711e-04  -1.348688e-04  0 
 -1.640959e-05  -9.007558e-05  0 
 1.096423e-04  -9.421365e-04  0 
 2.289387e-04  -9.629620e-04  0 
 1.433765e-04  -7.120964e-04  0 
 7.450374e-05  -1.500633e-04  0 