# vtk DataFile Version 3.1
this is an vtk file created by FEMAC
ASCII
DATASET UNSTRUCTURED_GRID
POINTS 56 FLOAT
3.000000 0.000000 0.000000
4.000000 0.000000 0.000000
3.000000 1.000000 0.000000
4.000000 1.000000 0.000000
3.166667 0.000000 0.000000
3.333333 0.000000 0.000000
3.500000 0.000000 0.000000
3.666667 0.000000 0.000000
3.833333 0.000000 0.000000
3.000000 0.166667 0.000000
3.000000 0.333333 0.000000
3.000000 0.500000 0.000000
3.000000 0.666667 0.000000
3.000000 0.833333 0.000000
3.166667 1.000000 0.000000
3.333333 1.000000 0.000000
3.500000 1.000000 0.000000
3.666667 1.000000 0.000000
3.833333 1.000000 0.000000
4.000000 0.166667 0.000000
4.000000 0.333333 0.000000
4.000000 0.500000 0.000000
4.000000 0.666667 0.000000
4.000000 0.833333 0.000000
3.512653 0.354260 0.000000
3.337982 0.617149 0.000000
3.681505 0.605629 0.000000
3.240896 0.265181 0.000000
3.848143 0.267621 0.000000
3.230204 0.869346 0.000000
3.774371 0.867208 0.000000
3.137258 0.144877 0.000000
3.610864 0.797025 0.000000
3.400943 0.799697 0.000000
3.510119 0.631368 0.000000
3.496236 0.200743 0.000000
3.752911 0.440804 0.000000
3.276128 0.438608 0.000000
3.439169 0.473252 0.000000
3.157069 0.571692 0.000000
3.589156 0.465156 0.000000
3.851162 0.593293 0.000000
3.645534 0.273596 0.000000
3.380316 0.311838 0.000000
3.325742 0.132321 0.000000
3.121386 0.763643 0.000000
3.885200 0.762551 0.000000
3.752779 0.718005 0.000000
3.115907 0.345766 0.000000
3.257712 0.724153 0.000000
3.749522 0.116687 0.000000
3.611592 0.118205 0.000000
3.103651 0.893264 0.000000
3.884719 0.104874 0.000000
3.898581 0.892618 0.000000
3.890443 0.427010 0.000000
CELLS 86 344 
3 4 31  0
3 31  9  0
3 16 33 32
3 34 26 32
3 38 25 37
3 25 38 34
3 26 40 36
3 40 26 34
3 42 24 35
3 42 28 36
3 27 43 37
3 44 27 31
3 12 45 13
3 45 12 39
3 46 22 23
3 22 46 41
3 26 47 32
3 47 30 32
3 47 26 41
3 27 48 31
3 49 25 33
3 29 49 33
3 25 49 39
3 34 33 25
3 32 33 34
3 40 38 24
3 34 38 40
3 43 35 24
3 42 40 24
3 36 40 42
3 38 43 24
3 38 37 43
3 45 49 29
3 45 39 49
3 47 46 30
3 41 46 47
3 16 15 33
3 15 29 33
3 14 29 15
3 48 11 10
3 48 27 37
3 50  7  8
3 42 50 28
3 6 44  5
3 6 35 44
3 43 27 44
3 44 35 43
3 11 39 12
3 48 39 11
3 25 39 37
3 48 37 39
3 41 21 22
3 41 26 36
3 17 16 32
3 30 17 32
3 30 18 17
3 4  5 44
3 31  4 44
3 10  9 48
3 9 31 48
3 20 28 19
3 7 51  6
3 51 35  6
3 51  7 50
3 13 52  2
3 52 14  2
3 52 13 45
3 53  8  1
3 19 53  1
3 18 54  3
3 23 54 46
3 54 23  3
3 52 29 14
3 45 29 52
3 30 54 18
3 30 46 54
3 51 42 35
3 50 42 51
3 8 53 50
3 53 28 50
3 28 53 19
3 55 21 41
3 36 55 41
3 20 55 28
3 55 20 21
3 55 36 28
CELL_TYPES 86
5 5 5 5 5 5 5 5 5 5 5 5 5 5 5 5 5 5 5 5 5 5 5 5 5 5 5 5 5 5 5 5 5 5 5 5 5 5 5 5 5 5 5 5 5 5 5 5 5 5 5 5 5 5 5 5 5 5 5 5 5 5 5 5 5 5 5 5 5 5 5 5 5 5 5 5 5 5 5 5 5 5 5 5 5 5 
POINT_DATA 56
VECTORS displacement_ITER1 FLOAT
 -1.237941e-02  -1.394393e-02  0 
 -1.546443e-02  -1.764896e-02  0 
 -5.401879e-03  -9.823501e-03  0 
 -9.017239e-03  -1.670537e-02  0 
 -1.245777e-02  -1.603806e-02  0 
 -1.255362e-02  -1.721064e-02  0 
 -1.275523e-02  -1.820531e-02  0 
 -1.319334e-02  -1.844086e-02  0 
 -1.395888e-02  -1.838197e-02  0 
 -1.010603e-02  -1.379207e-02  0 
 -9.308252e-03  -1.420606e-02  0 
 -8.608476e-03  -1.438282e-02  0 
 -7.583851e-03  -1.433936e-02  0 
 -5.697401e-03  -1.334489e-02  0 
 -6.730258e-03  -1.215211e-02  0 
 -8.015242e-03  -1.350708e-02  0 
 -8.235577e-03  -1.416971e-02  0 
 -7.959510e-03  -1.450353e-02  0 
 -7.978968e-03  -1.470812e-02  0 
 -1.413046e-02  -1.758599e-02  0 
 -1.308337e-02  -1.747669e-02  0 
 -1.212092e-02  -1.790654e-02  0 
 -1.095105e-02  -1.824227e-02  0 
 -9.912737e-03  -1.791129e-02  0 
 -1.119314e-02  -1.669228e-02  0 
 -8.958693e-03  -1.502961e-02  0 
 -1.054488e-02  -1.609817e-02  0 
 -1.037989e-02  -1.592343e-02  0 
 -1.311578e-02  -1.741163e-02  0 
 -7.840561e-03  -1.370989e-02  0 
 -8.863229e-03  -1.540623e-02  0 
 -1.082625e-02  -1.548287e-02  0 
 -8.996189e-03  -1.480256e-02  0 
 -8.528002e-03  -1.433428e-02  0 
 -9.615731e-03  -1.523477e-02  0 
 -1.191604e-02  -1.740808e-02  0 
 -1.189831e-02  -1.698583e-02  0 
 -9.511285e-03  -1.545916e-02  0 
 -1.011743e-02  -1.585366e-02  0 
 -8.532666e-03  -1.483557e-02  0 
 -1.097145e-02  -1.637633e-02  0 
 -1.126977e-02  -1.708445e-02  0 
 -1.229064e-02  -1.735641e-02  0 
 -1.074421e-02  -1.645187e-02  0 
 -1.157781e-02  -1.705734e-02  0 
 -7.367746e-03  -1.426255e-02  0 
 -1.009409e-02  -1.703411e-02  0 
 -1.005216e-02  -1.601778e-02  0 
 -9.400010e-03  -1.484729e-02  0 
 -8.156620e-03  -1.448680e-02  0 
 -1.339190e-02  -1.788980e-02  0 
 -1.274269e-02  -1.797314e-02  0 
 -6.858143e-03  -1.259180e-02  0 
 -1.412548e-02  -1.759753e-02  0 
 -9.196243e-03  -1.648101e-02  0 
 -1.238326e-02  -1.739709e-02  0 
VECTORS displacement_ITER2 FLOAT
 -9.327181e-03  -1.031546e-02  0 
 -1.211609e-02  -1.176679e-02  0 
 -4.517358e-03  -8.796374e-03  0 
 -6.211909e-03  -1.278442e-02  0 
 -9.555837e-03  -1.141983e-02  0 
 -9.756687e-03  -1.224989e-02  0 
 -9.995237e-03  -1.298638e-02  0 
 -1.031368e-02  -1.323590e-02  0 
 -1.085127e-02  -1.309216e-02  0 
 -7.967850e-03  -9.719702e-03  0 
 -7.204103e-03  -9.447211e-03  0 
 -6.254374e-03  -9.324308e-03  0 
 -5.583843e-03  -9.484511e-03  0 
 -4.789835e-03  -9.529999e-03  0 
 -4.983344e-03  -8.778749e-03  0 
 -5.060295e-03  -9.049750e-03  0 
 -5.120830e-03  -1.001349e-02  0 
 -5.124187e-03  -1.065883e-02  0 
 -5.715719e-03  -1.128431e-02  0 
 -1.054745e-02  -1.298527e-02  0 
 -9.775746e-03  -1.319703e-02  0 
 -8.859149e-03  -1.327460e-02  0 
 -7.855628e-03  -1.310191e-02  0 
 -7.158307e-03  -1.292011e-02  0 
 -8.599272e-03  -1.194365e-02  0 
 -6.587512e-03  -1.050468e-02  0 
 -7.711498e-03  -1.185872e-02  0 
 -8.170426e-03  -1.118431e-02  0 
 -9.958008e-03  -1.274602e-02  0 
 -5.330683e-03  -9.289525e-03  0 
 -6.359238e-03  -1.170099e-02  0 
 -8.552950e-03  -1.091843e-02  0 
 -6.448390e-03  -1.094893e-02  0 
 -6.012061e-03  -1.000549e-02  0 
 -7.091095e-03  -1.101792e-02  0 
 -9.276038e-03  -1.239536e-02  0 
 -8.811381e-03  -1.241077e-02  0 
 -7.296490e-03  -1.083554e-02  0 
 -7.683897e-03  -1.132664e-02  0 
 -6.232194e-03  -9.995263e-03  0 
 -8.240304e-03  -1.185715e-02  0 
 -8.097323e-03  -1.258698e-02  0 
 -9.442949e-03  -1.244305e-02  0 
 -8.361408e-03  -1.167082e-02  0 
 -9.087418e-03  -1.203817e-02  0 
 -5.324239e-03  -9.637927e-03  0 
 -7.250579e-03  -1.257184e-02  0 
 -7.250739e-03  -1.194606e-02  0 
 -7.351034e-03  -1.019541e-02  0 
 -5.854837e-03  -9.911761e-03  0 
 -1.048962e-02  -1.280512e-02  0 
 -9.955389e-03  -1.286045e-02  0 
 -4.982593e-03  -9.216844e-03  0 
 -1.104066e-02  -1.243711e-02  0 
 -6.647630e-03  -1.226026e-02  0 
 -9.119553e-03  -1.287920e-02  0 
VECTORS displacement_ITER3 FLOAT
 -8.387810e-03  -9.203050e-03  0 
 -1.034877e-02  -1.138450e-02  0 
 -4.116906e-03  -8.313053e-03  0 
 -5.514513e-03  -1.154118e-02  0 
 -8.641481e-03  -1.025000e-02  0 
 -8.772085e-03  -1.105615e-02  0 
 -8.904406e-03  -1.174446e-02  0 
 -9.097149e-03  -1.207228e-02  0 
 -9.465963e-03  -1.209520e-02  0 
 -7.550084e-03  -8.927264e-03  0 
 -6.800606e-03  -8.786767e-03  0 
 -5.907865e-03  -8.869287e-03  0 
 -5.079942e-03  -8.919351e-03  0 
 -4.620301e-03  -8.862931e-03  0 
 -4.573165e-03  -8.263528e-03  0 
 -4.674694e-03  -8.668248e-03  0 
 -4.857867e-03  -9.485108e-03  0 
 -4.908528e-03  -1.011160e-02  0 
 -5.286040e-03  -1.085538e-02  0 
 -9.337877e-03  -1.184660e-02  0 
 -8.631291e-03  -1.201110e-02  0 
 -7.772505e-03  -1.178697e-02  0 
 -6.951529e-03  -1.145632e-02  0 
 -6.294086e-03  -1.138390e-02  0 
 -7.611317e-03  -1.102401e-02  0 
 -6.051365e-03  -9.930490e-03  0 
 -6.857352e-03  -1.092333e-02  0 
 -7.420108e-03  -1.028241e-02  0 
 -8.748907e-03  -1.167767e-02  0 
 -4.949000e-03  -8.823532e-03  0 
 -5.872297e-03  -1.086595e-02  0 
 -7.856435e-03  -9.868742e-03  0 
 -5.947355e-03  -1.030877e-02  0 
 -5.567984e-03  -9.557811e-03  0 
 -6.421834e-03  -1.036293e-02  0 
 -8.200087e-03  -1.136107e-02  0 
 -7.717741e-03  -1.131627e-02  0 
 -6.647371e-03  -1.016757e-02  0 
 -6.902619e-03  -1.057021e-02  0 
 -5.777921e-03  -9.511951e-03  0 
 -7.291109e-03  -1.095446e-02  0 
 -7.120935e-03  -1.133846e-02  0 
 -8.277471e-03  -1.144021e-02  0 
 -7.471909e-03  -1.077962e-02  0 
 -8.176283e-03  -1.092234e-02  0 
 -4.978314e-03  -9.021041e-03  0 
 -6.469599e-03  -1.126338e-02  0 
 -6.503333e-03  -1.096270e-02  0 
 -6.832629e-03  -9.521417e-03  0 
 -5.456569e-03  -9.408004e-03  0 
 -9.121389e-03  -1.182686e-02  0 
 -8.741551e-03  -1.176812e-02  0 
 -4.641644e-03  -8.709721e-03  0 
 -9.543903e-03  -1.164051e-02  0 
 -5.949653e-03  -1.120031e-02  0 
 -7.980334e-03  -1.164062e-02  0 
VECTORS displacement_ITER4 FLOAT
 -7.598779e-03  -8.783559e-03  0 
 -9.097341e-03  -1.141213e-02  0 
 -3.749584e-03  -8.193128e-03  0 
 -4.841537e-03  -1.105900e-02  0 
 -7.829927e-03  -9.941065e-03  0 
 -7.890434e-03  -1.072110e-02  0 
 -7.944038e-03  -1.135510e-02  0 
 -8.071504e-03  -1.163196e-02  0 
 -8.378392e-03  -1.169477e-02  0 
 -6.989656e-03  -8.893053e-03  0 
 -6.172733e-03  -8.855501e-03  0 
 -5.458995e-03  -8.942905e-03  0 
 -4.718764e-03  -8.873586e-03  0 
 -4.265447e-03  -8.721681e-03  0 
 -4.104209e-03  -8.445283e-03  0 
 -4.396897e-03  -8.903823e-03  0 
 -4.597394e-03  -9.334995e-03  0 
 -4.616814e-03  -9.737869e-03  0 
 -4.653159e-03  -1.037483e-02  0 
 -8.468460e-03  -1.117792e-02  0 
 -7.770823e-03  -1.124360e-02  0 
 -7.092307e-03  -1.115681e-02  0 
 -6.364297e-03  -1.102744e-02  0 
 -5.595756e-03  -1.091012e-02  0 
 -6.841741e-03  -1.074732e-02  0 
 -5.532790e-03  -9.826162e-03  0 
 -6.234125e-03  -1.052574e-02  0 
 -6.673017e-03  -1.011306e-02  0 
 -7.853913e-03  -1.116419e-02  0 
 -4.580784e-03  -8.996234e-03  0 
 -5.320380e-03  -1.031420e-02  0 
 -7.116897e-03  -9.644727e-03  0 
 -5.397708e-03  -9.973411e-03  0 
 -5.070716e-03  -9.533020e-03  0 
 -5.823167e-03  -1.013157e-02  0 
 -7.334106e-03  -1.106052e-02  0 
 -7.011759e-03  -1.089931e-02  0 
 -6.041940e-03  -1.002293e-02  0 
 -6.248533e-03  -1.034566e-02  0 
 -5.341126e-03  -9.479137e-03  0 
 -6.596574e-03  -1.064266e-02  0 
 -6.531291e-03  -1.085027e-02  0 
 -7.413667e-03  -1.111400e-02  0 
 -6.714298e-03  -1.054443e-02  0 
 -7.340740e-03  -1.065440e-02  0 
 -4.634512e-03  -9.027049e-03  0 
 -5.855439e-03  -1.073622e-02  0 
 -5.903368e-03  -1.048296e-02  0 
 -6.195121e-03  -9.506158e-03  0 
 -5.024878e-03  -9.411175e-03  0 
 -8.054627e-03  -1.144441e-02  0 
 -7.769371e-03  -1.139820e-02  0 
 -4.278836e-03  -8.705300e-03  0 
 -8.411558e-03  -1.131905e-02  0 
 -5.307041e-03  -1.071981e-02  0 
 -7.257951e-03  -1.108536e-02  0 
VECTORS displacement_ITER5 FLOAT
 -7.513775e-03  -8.607938e-03  0 
 -8.905464e-03  -1.141558e-02  0 
 -3.818550e-03  -8.624485e-03  0 
 -4.723363e-03  -1.088049e-02  0 
 -7.757141e-03  -9.799397e-03  0 
 -7.821396e-03  -1.058873e-02  0 
 -7.871707e-03  -1.123931e-02  0 
 -7.981329e-03  -1.153989e-02  0 
 -8.259650e-03  -1.165538e-02  0 
 -6.918427e-03  -8.768187e-03  0 
 -6.115283e-03  -8.733770e-03  0 
 -5.408619e-03  -8.702603e-03  0 
 -4.726105e-03  -8.574750e-03  0 
 -4.169265e-03  -8.511801e-03  0 
 -3.954509e-03  -8.567771e-03  0 
 -4.105624e-03  -8.927839e-03  0 
 -4.281716e-03  -9.285205e-03  0 
 -4.366714e-03  -9.680148e-03  0 
 -4.440155e-03  -1.022404e-02  0 
 -8.307940e-03  -1.121986e-02  0 
 -7.593069e-03  -1.119097e-02  0 
 -6.907517e-03  -1.120738e-02  0 
 -6.244215e-03  -1.120508e-02  0 
 -5.486207e-03  -1.104967e-02  0 
 -6.748439e-03  -1.068564e-02  0 
 -5.415382e-03  -9.737972e-03  0 
 -6.095091e-03  -1.055431e-02  0 
 -6.610370e-03  -9.965045e-03  0 
 -7.681988e-03  -1.115468e-02  0 
 -4.345773e-03  -8.966637e-03  0 
 -5.091232e-03  -1.028401e-02  0 
 -7.037129e-03  -9.497439e-03  0 
 -5.171411e-03  -9.970881e-03  0 
 -4.836472e-03  -9.499163e-03  0 
 -5.672416e-03  -1.011082e-02  0 
 -7.250838e-03  -1.095975e-02  0 
 -6.886869e-03  -1.092800e-02  0 
 -5.994052e-03  -9.874153e-03  0 
 -6.157150e-03  -1.027468e-02  0 
 -5.297176e-03  -9.274982e-03  0 
 -6.486490e-03  -1.063024e-02  0 
 -6.406985e-03  -1.093878e-02  0 
 -7.295545e-03  -1.107775e-02  0 
 -6.647912e-03  -1.042295e-02  0 
 -7.268860e-03  -1.051994e-02  0 
 -4.517038e-03  -8.897365e-03  0 
 -5.706507e-03  -1.082049e-02  0 
 -5.732802e-03  -1.051954e-02  0 
 -6.150526e-03  -9.355758e-03  0 
 -4.870300e-03  -9.318861e-03  0 
 -7.927045e-03  -1.139452e-02  0 
 -7.673840e-03  -1.131492e-02  0 
 -4.083498e-03  -8.698371e-03  0 
 -8.265719e-03  -1.132550e-02  0 
 -5.117178e-03  -1.069642e-02  0 
 -7.109280e-03  -1.109666e-02  0 
VECTORS displacement_ITER6 FLOAT
 -7.411989e-03  -8.689068e-03  0 
 -8.812812e-03  -1.132176e-02  0 
 -3.774299e-03  -8.565173e-03  0 
 -4.646113e-03  -1.082371e-02  0 
 -7.647629e-03  -9.821104e-03  0 
 -7.715439e-03  -1.059151e-02  0 
 -7.770933e-03  -1.123047e-02  0 
 -7.883719e-03  -1.152930e-02  0 
 -8.164304e-03  -1.163827e-02  0 
 -6.785018e-03  -8.749334e-03  0 
 -6.046219e-03  -8.750399e-03  0 
 -5.325808e-03  -8.686559e-03  0 
 -4.648756e-03  -8.627548e-03  0 
 -4.075016e-03  -8.516894e-03  0 
 -3.960027e-03  -8.626492e-03  0 
 -4.095947e-03  -8.961759e-03  0 
 -4.257705e-03  -9.314754e-03  0 
 -4.380139e-03  -9.739945e-03  0 
 -4.469202e-03  -1.022513e-02  0 
 -8.175157e-03  -1.127308e-02  0 
 -7.529351e-03  -1.115056e-02  0 
 -6.807571e-03  -1.113832e-02  0 
 -6.133351e-03  -1.115275e-02  0 
 -5.440419e-03  -1.107606e-02  0 
 -6.653320e-03  -1.068710e-02  0 
 -5.337260e-03  -9.759399e-03  0 
 -6.014882e-03  -1.055497e-02  0 
 -6.526406e-03  -9.967442e-03  0 
 -7.568570e-03  -1.115264e-02  0 
 -4.306422e-03  -8.996339e-03  0 
 -5.041968e-03  -1.029305e-02  0 
 -6.936501e-03  -9.514370e-03  0 
 -5.123978e-03  -9.999612e-03  0 
 -4.786151e-03  -9.518743e-03  0 
 -5.601793e-03  -1.012801e-02  0 
 -7.152822e-03  -1.095133e-02  0 
 -6.786340e-03  -1.090866e-02  0 
 -5.907856e-03  -9.892610e-03  0 
 -6.070740e-03  -1.028936e-02  0 
 -5.205916e-03  -9.295727e-03  0 
 -6.395179e-03  -1.063087e-02  0 
 -6.315032e-03  -1.090152e-02  0 
 -7.190475e-03  -1.106421e-02  0 
 -6.557730e-03  -1.042878e-02  0 
 -7.172703e-03  -1.051835e-02  0 
 -4.453302e-03  -8.936521e-03  0 
 -5.646450e-03  -1.081357e-02  0 
 -5.670847e-03  -1.051931e-02  0 
 -6.074428e-03  -9.354173e-03  0 
 -4.803076e-03  -9.343722e-03  0 
 -7.836469e-03  -1.137775e-02  0 
 -7.577360e-03  -1.130194e-02  0 
 -4.043792e-03  -8.719704e-03  0 
 -8.181658e-03  -1.130370e-02  0 
 -5.060613e-03  -1.065859e-02  0 
 -7.016096e-03  -1.104704e-02  0 
VECTORS displacement_ITER7 FLOAT
 -7.360462e-03  -8.746914e-03  0 
 -8.756289e-03  -1.121216e-02  0 
 -3.773904e-03  -8.374210e-03  0 
 -4.535247e-03  -1.087289e-02  0 
 -7.590100e-03  -9.840730e-03  0 
 -7.659238e-03  -1.059678e-02  0 
 -7.717600e-03  -1.122535e-02  0 
 -7.831971e-03  -1.151682e-02  0 
 -8.110160e-03  -1.160462e-02  0 
 -6.730982e-03  -8.768438e-03  0 
 -6.007393e-03  -8.767288e-03  0 
 -5.284526e-03  -8.709382e-03  0 
 -4.601046e-03  -8.690241e-03  0 
 -4.070008e-03  -8.558942e-03  0 
 -4.044465e-03  -8.664085e-03  0 
 -4.186756e-03  -8.953397e-03  0 
 -4.318101e-03  -9.300389e-03  0 
 -4.444277e-03  -9.722197e-03  0 
 -4.511971e-03  -1.019997e-02  0 
 -8.127655e-03  -1.124579e-02  0 
 -7.463999e-03  -1.117810e-02  0 
 -6.797085e-03  -1.112140e-02  0 
 -6.102434e-03  -1.106128e-02  0 
 -5.403421e-03  -1.101007e-02  0 
 -6.609363e-03  -1.067219e-02  0 
 -5.308011e-03  -9.757565e-03  0 
 -5.980005e-03  -1.051761e-02  0 
 -6.483513e-03  -9.977901e-03  0 
 -7.530973e-03  -1.113276e-02  0 
 -4.350757e-03  -9.002653e-03  0 
 -5.051424e-03  -1.024423e-02  0 
 -6.890810e-03  -9.535913e-03  0 
 -5.129464e-03  -9.971837e-03  0 
 -4.802381e-03  -9.497676e-03  0 
 -5.578749e-03  -1.010503e-02  0 
 -7.106372e-03  -1.094341e-02  0 
 -6.740325e-03  -1.088191e-02  0 
 -5.860622e-03  -9.906434e-03  0 
 -6.029135e-03  -1.028059e-02  0 
 -5.158462e-03  -9.324393e-03  0 
 -6.352010e-03  -1.060544e-02  0 
 -6.275065e-03  -1.084876e-02  0 
 -7.149332e-03  -1.104178e-02  0 
 -6.511430e-03  -1.043017e-02  0 
 -7.124349e-03  -1.052165e-02  0 
 -4.447723e-03  -8.961232e-03  0 
 -5.627713e-03  -1.073718e-02  0 
 -5.651217e-03  -1.047007e-02  0 
 -6.032926e-03  -9.367563e-03  0 
 -4.794963e-03  -9.348494e-03  0 
 -7.799473e-03  -1.135514e-02  0 
 -7.532163e-03  -1.128888e-02  0 
 -4.107852e-03  -8.726572e-03  0 
 -8.147937e-03  -1.126175e-02  0 
 -5.049729e-03  -1.058829e-02  0 
 -6.971655e-03  -1.104742e-02  0 
VECTORS displacement_ITER8 FLOAT
 -7.453067e-03  -8.703626e-03  0 
 -8.848427e-03  -1.118868e-02  0 
 -3.905864e-03  -8.383655e-03  0 
 -4.523038e-03  -1.084126e-02  0 
 -7.667014e-03  -9.811811e-03  0 
 -7.732505e-03  -1.056980e-02  0 
 -7.791560e-03  -1.120423e-02  0 
 -7.909709e-03  -1.149174e-02  0 
 -8.190342e-03  -1.157520e-02  0 
 -6.764101e-03  -8.716372e-03  0 
 -6.046345e-03  -8.715615e-03  0 
 -5.342019e-03  -8.666931e-03  0 
 -4.663496e-03  -8.594457e-03  0 
 -4.089651e-03  -8.449462e-03  0 
 -4.088948e-03  -8.584712e-03  0 
 -4.206952e-03  -8.869215e-03  0 
 -4.317569e-03  -9.256964e-03  0 
 -4.443505e-03  -9.683579e-03  0 
 -4.527398e-03  -1.016619e-02  0 
 -8.197420e-03  -1.121341e-02  0 
 -7.496714e-03  -1.121495e-02  0 
 -6.867494e-03  -1.116684e-02  0 
 -6.174460e-03  -1.108615e-02  0 
 -5.422885e-03  -1.099549e-02  0 
 -6.678448e-03  -1.063144e-02  0 
 -5.361915e-03  -9.691953e-03  0 
 -6.028934e-03  -1.049058e-02  0 
 -6.538836e-03  -9.934654e-03  0 
 -7.604935e-03  -1.111974e-02  0 
 -4.380948e-03  -8.915575e-03  0 
 -5.066028e-03  -1.021611e-02  0 
 -6.943076e-03  -9.504501e-03  0 
 -5.154059e-03  -9.933091e-03  0 
 -4.838711e-03  -9.429995e-03  0 
 -5.627850e-03  -1.005282e-02  0 
 -7.181445e-03  -1.091102e-02  0 
 -6.805087e-03  -1.087652e-02  0 
 -5.917797e-03  -9.839246e-03  0 
 -6.088292e-03  -1.022622e-02  0 
 -5.224543e-03  -9.251918e-03  0 
 -6.413488e-03  -1.056960e-02  0 
 -6.332331e-03  -1.085811e-02  0 
 -7.227547e-03  -1.101571e-02  0 
 -6.577315e-03  -1.038311e-02  0 
 -7.189619e-03  -1.049469e-02  0 
 -4.487997e-03  -8.877751e-03  0 
 -5.658606e-03  -1.071641e-02  0 
 -5.683253e-03  -1.044684e-02  0 
 -6.074204e-03  -9.310205e-03  0 
 -4.840018e-03  -9.275264e-03  0 
 -7.879316e-03  -1.132822e-02  0 
 -7.610700e-03  -1.126240e-02  0 
 -4.136097e-03  -8.625936e-03  0 
 -8.223647e-03  -1.123100e-02  0 
 -5.060379e-03  -1.055456e-02  0 
 -7.029907e-03  -1.107736e-02  0 
VECTORS displacement_ITER9 FLOAT
 -7.476012e-03  -8.749549e-03  0 
 -8.881497e-03  -1.123030e-02  0 
 -3.944754e-03  -8.311640e-03  0 
 -4.609931e-03  -1.078241e-02  0 
 -7.675574e-03  -9.846435e-03  0 
 -7.733216e-03  -1.059734e-02  0 
 -7.787217e-03  -1.122515e-02  0 
 -7.904712e-03  -1.149926e-02  0 
 -8.189900e-03  -1.156761e-02  0 
 -6.743823e-03  -8.722191e-03  0 
 -6.043781e-03  -8.725039e-03  0 
 -5.357177e-03  -8.716970e-03  0 
 -4.689760e-03  -8.644577e-03  0 
 -4.083797e-03  -8.483818e-03  0 
 -4.108161e-03  -8.525548e-03  0 
 -4.266413e-03  -8.851833e-03  0 
 -4.376738e-03  -9.263911e-03  0 
 -4.480076e-03  -9.733766e-03  0 
 -4.582786e-03  -1.023107e-02  0 
 -8.179843e-03  -1.119109e-02  0 
 -7.548594e-03  -1.117911e-02  0 
 -6.877807e-03  -1.116553e-02  0 
 -6.180430e-03  -1.113116e-02  0 
 -5.457746e-03  -1.102293e-02  0 
 -6.694827e-03  -1.064853e-02  0 
 -5.391289e-03  -9.705861e-03  0 
 -6.065027e-03  -1.049621e-02  0 
 -6.542215e-03  -9.963361e-03  0 
 -7.621531e-03  -1.112190e-02  0 
 -4.432980e-03  -8.908692e-03  0 
 -5.099212e-03  -1.026552e-02  0 
 -6.942969e-03  -9.539237e-03  0 
 -5.203492e-03  -9.945450e-03  0 
 -4.890587e-03  -9.430323e-03  0 
 -5.666058e-03  -1.005856e-02  0 
 -7.188970e-03  -1.093327e-02  0 
 -6.836457e-03  -1.087466e-02  0 
 -5.925679e-03  -9.858760e-03  0 
 -6.108590e-03  -1.024083e-02  0 
 -5.245205e-03  -9.281510e-03  0 
 -6.441157e-03  -1.057704e-02  0 
 -6.361394e-03  -1.086542e-02  0 
 -7.241882e-03  -1.102747e-02  0 
 -6.586922e-03  -1.040823e-02  0 
 -7.192957e-03  -1.052749e-02  0 
 -4.513901e-03  -8.903987e-03  0 
 -5.678219e-03  -1.075574e-02  0 
 -5.719794e-03  -1.046546e-02  0 
 -6.068464e-03  -9.326023e-03  0 
 -4.874269e-03  -9.288359e-03  0 
 -7.878413e-03  -1.133033e-02  0 
 -7.612215e-03  -1.127564e-02  0 
 -4.168824e-03  -8.591959e-03  0 
 -8.211983e-03  -1.121598e-02  0 
 -5.089185e-03  -1.058935e-02  0 
 -7.064611e-03  -1.105576e-02  0 
VECTORS displacement_ITER10 FLOAT
 -7.466845e-03  -8.752734e-03  0 
 -8.856637e-03  -1.120811e-02  0 
 -3.910833e-03  -8.268228e-03  0 
 -4.592939e-03  -1.082818e-02  0 
 -7.672794e-03  -9.843655e-03  0 
 -7.735689e-03  -1.059173e-02  0 
 -7.793648e-03  -1.121848e-02  0 
 -7.912193e-03  -1.149796e-02  0 
 -8.192245e-03  -1.157071e-02  0 
 -6.758152e-03  -8.739680e-03  0 
 -6.052614e-03  -8.717349e-03  0 
 -5.360503e-03  -8.710584e-03  0 
 -4.704403e-03  -8.657585e-03  0 
 -4.125363e-03  -8.517691e-03  0 
 -4.115147e-03  -8.534168e-03  0 
 -4.285844e-03  -8.868482e-03  0 
 -4.405962e-03  -9.231580e-03  0 
 -4.503682e-03  -9.646899e-03  0 
 -4.566857e-03  -1.016015e-02  0 
 -8.210793e-03  -1.118557e-02  0 
 -7.558249e-03  -1.118560e-02  0 
 -6.868303e-03  -1.115025e-02  0 
 -6.204537e-03  -1.109751e-02  0 
 -5.503978e-03  -1.099844e-02  0 
 -6.699916e-03  -1.063869e-02  0 
 -5.394153e-03  -9.697055e-03  0 
 -6.071938e-03  -1.047977e-02  0 
 -6.549955e-03  -9.956748e-03  0 
 -7.636077e-03  -1.111103e-02  0 
 -4.453833e-03  -8.922346e-03  0 
 -5.126271e-03  -1.019911e-02  0 
 -6.949392e-03  -9.536630e-03  0 
 -5.210225e-03  -9.905862e-03  0 
 -4.895777e-03  -9.423426e-03  0 
 -5.666176e-03  -1.004250e-02  0 
 -7.193723e-03  -1.092536e-02  0 
 -6.838796e-03  -1.085995e-02  0 
 -5.930950e-03  -9.853695e-03  0 
 -6.111910e-03  -1.022996e-02  0 
 -5.247537e-03  -9.277533e-03  0 
 -6.444662e-03  -1.056623e-02  0 
 -6.367715e-03  -1.085233e-02  0 
 -7.248193e-03  -1.101799e-02  0 
 -6.592089e-03  -1.040008e-02  0 
 -7.198111e-03  -1.051798e-02  0 
 -4.534162e-03  -8.912830e-03  0 
 -5.715308e-03  -1.072595e-02  0 
 -5.736789e-03  -1.043804e-02  0 
 -6.079232e-03  -9.323376e-03  0 
 -4.883571e-03  -9.286150e-03  0 
 -7.886777e-03  -1.133131e-02  0 
 -7.618348e-03  -1.127091e-02  0 
 -4.197251e-03  -8.614259e-03  0 
 -8.225756e-03  -1.122336e-02  0 
 -5.124673e-03  -1.055415e-02  0 
 -7.062365e-03  -1.104191e-02  0 
VECTORS displacement_ITER11 FLOAT
 -7.494123e-03  -8.770512e-03  0 
 -8.849740e-03  -1.121918e-02  0 
 -3.897327e-03  -8.276751e-03  0 
 -4.647282e-03  -1.080770e-02  0 
 -7.680685e-03  -9.859335e-03  0 
 -7.732719e-03  -1.060432e-02  0 
 -7.783312e-03  -1.122953e-02  0 
 -7.899114e-03  -1.150448e-02  0 
 -8.182076e-03  -1.158000e-02  0 
 -6.747324e-03  -8.745104e-03  0 
 -6.048201e-03  -8.733439e-03  0 
 -5.348027e-03  -8.714952e-03  0 
 -4.679461e-03  -8.659121e-03  0 
 -4.089307e-03  -8.517256e-03  0 
 -4.092065e-03  -8.493912e-03  0 
 -4.248683e-03  -8.858200e-03  0 
 -4.384028e-03  -9.252712e-03  0 
 -4.482107e-03  -9.687834e-03  0 
 -4.563255e-03  -1.020078e-02  0 
 -8.192302e-03  -1.120459e-02  0 
 -7.528297e-03  -1.117787e-02  0 
 -6.872796e-03  -1.115502e-02  0 
 -6.188641e-03  -1.110703e-02  0 
 -5.475243e-03  -1.101158e-02  0 
 -6.691578e-03  -1.065800e-02  0 
 -5.385008e-03  -9.712376e-03  0 
 -6.064917e-03  -1.049862e-02  0 
 -6.546095e-03  -9.976447e-03  0 
 -7.612010e-03  -1.111875e-02  0 
 -4.432431e-03  -8.903576e-03  0 
 -5.114776e-03  -1.024005e-02  0 
 -6.947397e-03  -9.558558e-03  0 
 -5.204181e-03  -9.932146e-03  0 
 -4.887490e-03  -9.435071e-03  0 
 -5.660724e-03  -1.006195e-02  0 
 -7.185476e-03  -1.094094e-02  0 
 -6.829431e-03  -1.087727e-02  0 
 -5.922925e-03  -9.872447e-03  0 
 -6.104847e-03  -1.025026e-02  0 
 -5.233513e-03  -9.289282e-03  0 
 -6.437263e-03  -1.058518e-02  0 
 -6.361103e-03  -1.086203e-02  0 
 -7.235076e-03  -1.103254e-02  0 
 -6.586188e-03  -1.042030e-02  0 
 -7.193468e-03  -1.053748e-02  0 
 -4.507084e-03  -8.910627e-03  0 
 -5.696240e-03  -1.074689e-02  0 
 -5.727317e-03  -1.045956e-02  0 
 -6.073025e-03  -9.337410e-03  0 
 -4.868484e-03  -9.290920e-03  0 
 -7.872403e-03  -1.133675e-02  0 
 -7.606930e-03  -1.128104e-02  0 
 -4.166121e-03  -8.596331e-03  0 
 -8.212944e-03  -1.123287e-02  0 
 -5.112705e-03  -1.059465e-02  0 
 -7.053420e-03  -1.105623e-02  0 
VECTORS displacement_ITER12 FLOAT
 -7.475541e-03  -8.751836e-03  0 
 -8.836429e-03  -1.120705e-02  0 
 -3.860185e-03  -8.315774e-03  0 
 -4.661798e-03  -1.082276e-02  0 
 -7.671852e-03  -9.844929e-03  0 
 -7.728879e-03  -1.059274e-02  0 
 -7.782219e-03  -1.122058e-02  0 
 -7.897365e-03  -1.149956e-02  0 
 -8.177131e-03  -1.157706e-02  0 
 -6.743526e-03  -8.731468e-03  0 
 -6.048696e-03  -8.718782e-03  0 
 -5.346237e-03  -8.694169e-03  0 
 -4.674421e-03  -8.642788e-03  0 
 -4.096131e-03  -8.519443e-03  0 
 -4.075136e-03  -8.510170e-03  0 
 -4.233252e-03  -8.840241e-03  0 
 -4.376433e-03  -9.231847e-03  0 
 -4.478248e-03  -9.666244e-03  0 
 -4.568992e-03  -1.017989e-02  0 
 -8.192079e-03  -1.120265e-02  0 
 -7.526645e-03  -1.117440e-02  0 
 -6.872219e-03  -1.114708e-02  0 
 -6.188969e-03  -1.109638e-02  0 
 -5.483171e-03  -1.100081e-02  0 
 -6.686711e-03  -1.065128e-02  0 
 -5.377132e-03  -9.706922e-03  0 
 -6.061470e-03  -1.049402e-02  0 
 -6.543172e-03  -9.960292e-03  0 
 -7.609226e-03  -1.111532e-02  0 
 -4.410667e-03  -8.905792e-03  0 
 -5.119573e-03  -1.023024e-02  0 
 -6.941149e-03  -9.540130e-03  0 
 -5.201028e-03  -9.922734e-03  0 
 -4.875064e-03  -9.429609e-03  0 
 -5.653944e-03  -1.005848e-02  0 
 -7.181384e-03  -1.093194e-02  0 
 -6.825109e-03  -1.087245e-02  0 
 -5.920082e-03  -9.862200e-03  0 
 -6.099754e-03  -1.024439e-02  0 
 -5.228581e-03  -9.277600e-03  0 
 -6.432149e-03  -1.058087e-02  0 
 -6.359165e-03  -1.085534e-02  0 
 -7.230458e-03  -1.102748e-02  0 
 -6.582203e-03  -1.040932e-02  0 
 -7.189772e-03  -1.052280e-02  0 
 -4.498141e-03  -8.905070e-03  0 
 -5.699953e-03  -1.074021e-02  0 
 -5.727237e-03  -1.045335e-02  0 
 -6.073898e-03  -9.322454e-03  0 
 -4.857948e-03  -9.287171e-03  0 
 -7.869471e-03  -1.133423e-02  0 
 -7.604045e-03  -1.127519e-02  0 
 -4.148783e-03  -8.618811e-03  0 
 -8.210633e-03  -1.123179e-02  0 
 -5.126197e-03  -1.058880e-02  0 
 -7.050496e-03  -1.105119e-02  0 
VECTORS displacement_ITER13 FLOAT
 -7.460470e-03  -8.744741e-03  0 
 -8.828073e-03  -1.120472e-02  0 
 -3.844251e-03  -8.307227e-03  0 
 -4.659435e-03  -1.082847e-02  0 
 -7.660723e-03  -9.841376e-03  0 
 -7.718463e-03  -1.059070e-02  0 
 -7.771819e-03  -1.121811e-02  0 
 -7.887141e-03  -1.149604e-02  0 
 -8.167121e-03  -1.157152e-02  0 
 -6.739906e-03  -8.731831e-03  0 
 -6.038775e-03  -8.722438e-03  0 
 -5.339962e-03  -8.699895e-03  0 
 -4.673222e-03  -8.650204e-03  0 
 -4.091321e-03  -8.510981e-03  0 
 -4.069986e-03  -8.515699e-03  0 
 -4.241856e-03  -8.847256e-03  0 
 -4.383943e-03  -9.234029e-03  0 
 -4.482731e-03  -9.656398e-03  0 
 -4.567413e-03  -1.016329e-02  0 
 -8.185684e-03  -1.119098e-02  0 
 -7.527461e-03  -1.116484e-02  0 
 -6.862521e-03  -1.113166e-02  0 
 -6.188765e-03  -1.108605e-02  0 
 -5.483111e-03  -1.099938e-02  0 
 -6.679106e-03  -1.064773e-02  0 
 -5.373087e-03  -9.707342e-03  0 
 -6.057942e-03  -1.048785e-02  0 
 -6.533114e-03  -9.960164e-03  0 
 -7.604626e-03  -1.110778e-02  0 
 -4.410463e-03  -8.916154e-03  0 
 -5.119833e-03  -1.021767e-02  0 
 -6.932670e-03  -9.536612e-03  0 
 -5.198717e-03  -9.916023e-03  0 
 -4.873637e-03  -9.432098e-03  0 
 -5.649314e-03  -1.005512e-02  0 
 -7.172077e-03  -1.092935e-02  0 
 -6.819304e-03  -1.086422e-02  0 
 -5.913026e-03  -9.862154e-03  0 
 -6.093271e-03  -1.024170e-02  0 
 -5.224374e-03  -9.280604e-03  0 
 -6.426058e-03  -1.057623e-02  0 
 -6.356070e-03  -1.084747e-02  0 
 -7.222964e-03  -1.102263e-02  0 
 -6.573247e-03  -1.040740e-02  0 
 -7.179768e-03  -1.052088e-02  0 
 -4.499563e-03  -8.910467e-03  0 
 -5.701684e-03  -1.073191e-02  0 
 -5.725976e-03  -1.044553e-02  0 
 -6.064555e-03  -9.325829e-03  0 
 -4.856798e-03  -9.291377e-03  0 
 -7.860287e-03  -1.132983e-02  0 
 -7.594444e-03  -1.127185e-02  0 
 -4.143563e-03  -8.621694e-03  0 
 -8.201192e-03  -1.122507e-02  0 
 -5.127773e-03  -1.058165e-02  0 
 -7.044337e-03  -1.103788e-02  0 
VECTORS displacement_ITER14 FLOAT
 -7.446021e-03  -8.734930e-03  0 
 -8.824284e-03  -1.120768e-02  0 
 -3.844164e-03  -8.306773e-03  0 
 -4.653668e-03  -1.081486e-02  0 
 -7.651464e-03  -9.835855e-03  0 
 -7.710323e-03  -1.058824e-02  0 
 -7.763644e-03  -1.121682e-02  0 
 -7.878188e-03  -1.149492e-02  0 
 -8.158052e-03  -1.156861e-02  0 
 -6.738292e-03  -8.729400e-03  0 
 -6.029937e-03  -8.721806e-03  0 
 -5.331766e-03  -8.703626e-03  0 
 -4.662023e-03  -8.651386e-03  0 
 -4.080711e-03  -8.512829e-03  0 
 -4.073595e-03  -8.512349e-03  0 
 -4.239728e-03  -8.847168e-03  0 
 -4.374511e-03  -9.237757e-03  0 
 -4.470239e-03  -9.665321e-03  0 
 -4.558584e-03  -1.016688e-02  0 
 -8.171408e-03  -1.118783e-02  0 
 -7.519290e-03  -1.116631e-02  0 
 -6.855471e-03  -1.113725e-02  0 
 -6.179684e-03  -1.109315e-02  0 
 -5.468033e-03  -1.099989e-02  0 
 -6.669988e-03  -1.064694e-02  0 
 -5.364650e-03  -9.706655e-03  0 
 -6.049002e-03  -1.048714e-02  0 
 -6.523467e-03  -9.958661e-03  0 
 -7.595911e-03  -1.110922e-02  0 
 -4.406214e-03  -8.912801e-03  0 
 -5.106224e-03  -1.022246e-02  0 
 -6.925770e-03  -9.530461e-03  0 
 -5.189279e-03  -9.917111e-03  0 
 -4.867061e-03  -9.429268e-03  0 
 -5.641364e-03  -1.005327e-02  0 
 -7.163089e-03  -1.092885e-02  0 
 -6.811724e-03  -1.086524e-02  0 
 -5.903623e-03  -9.862165e-03  0 
 -6.084302e-03  -1.024071e-02  0 
 -5.215496e-03  -9.282583e-03  0 
 -6.417583e-03  -1.057506e-02  0 
 -6.347791e-03  -1.084961e-02  0 
 -7.214535e-03  -1.102281e-02  0 
 -6.563507e-03  -1.040646e-02  0 
 -7.171283e-03  -1.051833e-02  0 
 -4.489889e-03  -8.911045e-03  0 
 -5.687894e-03  -1.073366e-02  0 
 -5.714955e-03  -1.044620e-02  0 
 -6.055415e-03  -9.326675e-03  0 
 -4.848523e-03  -9.290451e-03  0 
 -7.850996e-03  -1.132878e-02  0 
 -7.585528e-03  -1.127143e-02  0 
 -4.138772e-03  -8.620697e-03  0 
 -8.189808e-03  -1.122135e-02  0 
 -5.113297e-03  -1.058256e-02  0 
 -7.037313e-03  -1.104047e-02  0 
VECTORS displacement_ITER15 FLOAT
 -7.451244e-03  -8.733121e-03  0 