# vtk DataFile Version 3.1
this is an vtk file created by FEMAC
ASCII
DATASET UNSTRUCTURED_GRID
POINTS 55 FLOAT
0.000000 3.000000 0.000000
1.000000 3.000000 0.000000
0.000000 4.000000 0.000000
1.000000 4.000000 0.000000
0.166667 3.000000 0.000000
0.333333 3.000000 0.000000
0.500000 3.000000 0.000000
0.666667 3.000000 0.000000
0.833333 3.000000 0.000000
0.166667 4.000000 0.000000
0.333333 4.000000 0.000000
0.500000 4.000000 0.000000
0.666667 4.000000 0.000000
0.833333 4.000000 0.000000
0.000000 3.166667 0.000000
0.000000 3.333333 0.000000
0.000000 3.500000 0.000000
0.000000 3.666667 0.000000
0.000000 3.833333 0.000000
1.000000 3.166667 0.000000
1.000000 3.333333 0.000000
1.000000 3.500000 0.000000
1.000000 3.666667 0.000000
1.000000 3.833333 0.000000
0.357609 3.500972 0.000000
0.617149 3.333924 0.000000
0.608420 3.671256 0.000000
0.265181 3.237812 0.000000
0.261987 3.763565 0.000000
0.869358 3.229328 0.000000
0.867634 3.772183 0.000000
0.144877 3.136291 0.000000
0.143875 3.864141 0.000000
0.797424 3.606308 0.000000
0.799754 3.398220 0.000000
0.631909 3.502327 0.000000
0.210492 3.500364 0.000000
0.438608 3.271310 0.000000
0.432863 3.731403 0.000000
0.571692 3.155380 0.000000
0.473901 3.430220 0.000000
0.567544 3.846644 0.000000
0.470333 3.577248 0.000000
0.134180 3.321109 0.000000
0.133379 3.679340 0.000000
0.311111 3.625482 0.000000
0.313329 3.376965 0.000000
0.763647 3.120638 0.000000
0.761895 3.880458 0.000000
0.719527 3.747256 0.000000
0.345766 3.114399 0.000000
0.343753 3.886536 0.000000
0.724164 3.255786 0.000000
0.893268 3.103326 0.000000
0.892572 3.897195 0.000000
CELLS 84 336 
3 4 31  0
3 31 14  0
3 32  9  2
3 18 32  2
3 34 21 33
3 26 35 33
3 25 40 37
3 40 25 35
3 42 26 38
3 26 42 35
3 27 43 31
3 44 28 32
3 28 45 38
3 46 27 37
3 47  7  8
3 7 47 39
3 12 48 13
3 48 12 41
3 49 26 33
3 30 49 33
3 26 49 41
3 50 27 31
3 28 51 32
3 25 52 34
3 52 29 34
3 52 25 39
3 34 35 25
3 34 33 35
3 40 42 24
3 40 35 42
3 36 46 24
3 45 36 24
3 46 40 24
3 37 40 46
3 42 45 24
3 42 38 45
3 52 47 29
3 39 47 52
3 48 49 30
3 48 41 49
3 20 21 34
3 29 20 34
3 29 19 20
3 6 50  5
3 27 50 37
3 51 11 10
3 28 38 51
3 43 16 15
3 36 16 43
3 27 46 43
3 36 43 46
3 16 44 17
3 16 36 44
3 45 28 44
3 44 36 45
3 39  6  7
3 39 50  6
3 39 25 37
3 37 50 39
3 11 41 12
3 41 11 51
3 41 38 26
3 51 38 41
3 21 22 33
3 22 30 33
3 23 30 22
3 18 17 44
3 32 18 44
3 10  9 51
3 9 32 51
3 15 14 43
3 14 31 43
3 4  5 50
3 31  4 50
3 53  8  1
3 19 53  1
3 8 53 47
3 13 54  3
3 54 23  3
3 54 13 48
3 29 53 19
3 29 47 53
3 54 30 23
3 48 30 54
CELL_TYPES 84
5 5 5 5 5 5 5 5 5 5 5 5 5 5 5 5 5 5 5 5 5 5 5 5 5 5 5 5 5 5 5 5 5 5 5 5 5 5 5 5 5 5 5 5 5 5 5 5 5 5 5 5 5 5 5 5 5 5 5 5 5 5 5 5 5 5 5 5 5 5 5 5 5 5 5 5 5 5 5 5 5 5 5 5 
POINT_DATA 55
VECTORS displacement_ITER1 FLOAT
 -5.710946e-21  1.771868e-22  0 
 1.033267e-03  1.256299e-03  0 
 1.168318e-20  2.134106e-21  0 
 7.426931e-04  -2.664191e-03  0 
 9.055004e-04  1.118526e-03  0 
 7.539851e-04  3.752393e-04  0 
 1.161238e-03  -4.362827e-04  0 
 1.318985e-03  -1.348029e-03  0 
 6.431095e-04  -1.124450e-03  0 
 -8.328891e-04  5.086364e-04  0 
 -5.960188e-04  7.306068e-05  0 
 -6.787998e-04  -4.830144e-04  0 
 -1.033866e-03  -1.017338e-03  0 
 -8.602465e-04  -1.775260e-04  0 
 0  0  0 
 0  0  0 
 0  0  0 
 0  0  0 
 0  0  0 
 -1.037051e-03  -1.229796e-03  0 
 9.655421e-04  -1.885003e-03  0 
 1.932444e-03  -1.326058e-03  0 
 1.320967e-03  -2.259740e-03  0 
 1.855467e-03  -3.519050e-03  0 
 2.211728e-04  -5.245833e-04  0 
 5.200988e-04  -2.761900e-04  0 
 5.139524e-04  -8.701646e-04  0 
 3.832072e-04  -2.921621e-04  0 
 2.777310e-05  -4.881600e-04  0 
 -1.183702e-04  -4.938812e-04  0 
 9.132513e-04  -1.550267e-03  0 
 1.948487e-04  9.084260e-05  0 
 -3.841427e-05  -2.284701e-04  0 
 8.827386e-04  -1.312240e-03  0 
 1.033055e-03  -5.220583e-04  0 
 5.434560e-04  -7.365008e-04  0 
 1.280649e-04  -4.602025e-04  0 
 6.380712e-04  -3.750680e-04  0 
 7.809620e-05  -6.872228e-04  0 
 7.827014e-04  -6.389347e-04  0 
 3.248508e-04  -4.671846e-04  0 
 -2.925685e-06  -9.918171e-04  0 
 3.276491e-04  -6.225696e-04  0 
 1.009357e-04  -2.591410e-04  0 
 5.244186e-05  -3.352472e-04  0 
 1.267442e-04  -5.920627e-04  0 
 2.898248e-04  -5.067157e-04  0 
 1.861891e-04  -7.256988e-04  0 
 4.289833e-04  -1.005013e-03  0 
 6.326610e-04  -1.065638e-03  0 
 8.525909e-04  4.498194e-05  0 
 -3.347184e-04  -2.435976e-04  0 
 3.240646e-04  -3.029590e-04  0 
 -4.899977e-04  -9.294186e-04  0 
 7.550641e-04  -1.533425e-03  0 
VECTORS displacement_ITER2 FLOAT
 -7.264628e-21  1.462799e-22  0 
 -1.561024e-04  -7.546332e-04  0 
 9.162126e-21  3.386513e-22  0 
 1.031940e-03  -2.412467e-03  0 
 -5.432286e-05  -2.730361e-04  0 
 -2.731789e-05  -4.861671e-04  0 
 1.280406e-04  -4.975049e-04  0 
 3.771257e-04  -3.007476e-04  0 
 4.763344e-04  -2.439966e-04  0 
 -1.558509e-04  -4.280631e-04  0 
 -2.750269e-04  -5.210521e-04  0 
 -4.542522e-04  -8.257345e-04  0 
 -6.198944e-04  -8.893124e-04  0 
 -3.007346e-04  -9.858733e-04  0 
 0  0  0 
 0  0  0 
 0  0  0 
 0  0  0 
 0  0  0 
 9.286385e-04  -1.115700e-03  0 
 5.623903e-04  -1.695879e-03  0 
 7.467104e-04  -1.109524e-03  0 
 8.788953e-04  -1.705881e-03  0 
 1.550680e-03  -1.772812e-03  0 
 2.195861e-04  -7.288432e-04  0 
 3.437044e-04  -8.794781e-04  0 
 4.409504e-04  -9.867985e-04  0 
 6.334044e-05  -4.667705e-04  0 
 8.185125e-05  -7.379689e-04  0 
 4.889353e-04  -1.128017e-03  0 
 8.713061e-04  -1.115164e-03  0 
 5.938127e-06  -2.543174e-04  0 
 1.110292e-05  -4.806671e-04  0 
 5.337854e-04  -1.099255e-03  0 
 6.335165e-04  -1.111005e-03  0 
 4.612553e-04  -1.050382e-03  0 
 9.941733e-05  -5.043923e-04  0 
 1.463175e-04  -6.844104e-04  0 
 1.849465e-04  -9.674071e-04  0 
 1.388901e-04  -6.806378e-04  0 
 2.771655e-04  -8.325041e-04  0 
 1.215822e-04  -1.088352e-03  0 
 3.437177e-04  -9.040098e-04  0 
 2.963529e-05  -2.787454e-04  0 
 3.954845e-05  -4.196663e-04  0 
 1.637410e-04  -7.750265e-04  0 
 1.369062e-04  -5.909638e-04  0 
 3.063300e-04  -5.850219e-04  0 
 2.803444e-04  -1.032058e-03  0 
 5.570309e-04  -1.023550e-03  0 
 2.039454e-05  -5.598333e-04  0 
 -4.154921e-05  -8.136458e-04  0 
 3.661302e-04  -8.675593e-04  0 
 4.876278e-04  -4.509414e-04  0 
 6.456485e-04  -1.307299e-03  0 
VECTORS displacement_ITER3 FLOAT
 -9.135487e-21  1.612157e-23  0 
 -3.983153e-05  -9.529404e-04  0 
 5.298039e-21  -1.885299e-21  0 
 9.651187e-04  -2.249358e-03  0 
 -1.656519e-04  -4.030016e-04  0 
 -1.620744e-04  -3.626360e-04  0 
 -3.510380e-04  -1.808213e-04  0 
 -4.415801e-04  2.057470e-05  0 
 -2.517694e-04  -2.550437e-04  0 
 5.329360e-05  -2.822079e-04  0 
 -5.863549e-05  -2.183996e-04  0 
 -1.175129e-04  -4.282255e-04  0 
 -1.071139e-04  -5.908546e-04  0 
 -4.248541e-06  -1.231098e-03  0 
 0  0  0 
 0  0  0 
 0  0  0 
 0  0  0 
 0  0  0 
 9.135155e-04  -2.089011e-03  0 
 6.349285e-04  -2.056929e-03  0 
 6.894409e-04  -1.904321e-03  0 
 1.056424e-03  -1.702885e-03  0 
 1.126138e-03  -1.214995e-03  0 
 2.339191e-04  -5.833620e-04  0 
 2.951672e-04  -9.040294e-04  0 
 5.397153e-04  -1.020409e-03  0 
 -7.614002e-05  -2.733095e-04  0 
 2.071883e-04  -5.358087e-04  0 
 5.818472e-04  -1.567943e-03  0 
 8.834588e-04  -1.232499e-03  0 
 -6.085320e-05  -2.238917e-04  0 
 1.071683e-04  -3.276359e-04  0 
 7.675314e-04  -1.250965e-03  0 
 5.823911e-04  -1.468933e-03  0 
 5.704854e-04  -1.047859e-03  0 
 9.163637e-05  -3.334182e-04  0 
 -4.517796e-05  -4.421584e-04  0 
 3.281100e-04  -8.185562e-04  0 
 -1.776206e-04  -3.726579e-04  0 
 2.999378e-04  -7.103206e-04  0 
 2.739513e-04  -8.689499e-04  0 
 4.054202e-04  -8.305039e-04  0 
 -1.145204e-05  -1.551306e-04  0 
 8.636374e-05  -2.731177e-04  0 
 2.332406e-04  -6.066341e-04  0 
 6.507174e-05  -3.705487e-04  0 
 -8.726561e-06  -6.423618e-04  0 
 2.874976e-04  -1.121068e-03  0 
 6.152176e-04  -1.136955e-03  0 
 -2.245907e-04  -3.370026e-04  0 
 1.693992e-04  -5.481791e-04  0 
 3.225831e-04  -1.020620e-03  0 
 2.303168e-04  -9.942452e-04  0 
 4.977266e-04  -1.276742e-03  0 
VECTORS displacement_ITER4 FLOAT
 -1.025942e-20  -6.671286e-23  0 
 3.598744e-04  -9.166319e-04  0 
 3.037679e-21  -2.754500e-21  0 
 5.579953e-04  -1.924497e-03  0 
 1.054666e-04  -2.839068e-05  0 
 7.367698e-05  -2.304291e-04  0 
 4.418765e-05  -4.191475e-04  0 
 4.082884e-06  -5.336455e-04  0 
 1.807383e-04  -5.663752e-04  0 
 -1.825529e-04  3.165832e-06  0 
 -2.062033e-04  -2.277446e-04  0 
 -2.101539e-04  -4.430578e-04  0 
 -8.720975e-05  -7.848143e-04  0 
 1.153610e-04  -1.423076e-03  0 
 0  0  0 
 0  0  0 
 0  0  0 
 0  0  0 
 0  0  0 
 4.633094e-04  -1.519584e-03  0 
 6.237915e-04  -1.608194e-03  0 
 8.760450e-04  -1.852177e-03  0 
 1.045413e-03  -1.460060e-03  0 
 9.347136e-04  -1.374135e-03  0 
 2.076403e-04  -6.340793e-04  0 
 3.272311e-04  -8.600205e-04  0 
 4.409691e-04  -1.036056e-03  0 
 5.652624e-05  -3.437399e-04  0 
 1.344769e-04  -5.307837e-04  0 
 4.224612e-04  -1.231644e-03  0 
 7.044227e-04  -1.313155e-03  0 
 1.045271e-05  -1.685367e-04  0 
 6.390122e-05  -2.744901e-04  0 
 7.862326e-04  -1.251545e-03  0 
 5.158746e-04  -1.225104e-03  0 
 4.914288e-04  -9.527491e-04  0 
 9.795768e-05  -4.118248e-04  0 
 1.551408e-04  -5.426866e-04  0 
 2.248023e-04  -7.912693e-04  0 
 1.293525e-04  -6.057577e-04  0 
 2.968394e-04  -7.202356e-04  0 
 1.418372e-04  -8.651233e-04  0 
 3.135521e-04  -8.203412e-04  0 
 2.288663e-05  -2.160207e-04  0 
 7.263747e-05  -3.005497e-04  0 
 1.784907e-04  -6.273530e-04  0 
 1.330587e-04  -4.844067e-04  0 
 1.730982e-04  -8.442214e-04  0 
 2.224394e-04  -1.214596e-03  0 
 4.812526e-04  -1.186456e-03  0 
 8.252327e-05  -3.136043e-04  0 
 6.305645e-06  -4.807910e-04  0 
 3.301947e-04  -9.642620e-04  0 
 2.889778e-04  -1.024276e-03  0 
 4.432533e-04  -1.463421e-03  0 
VECTORS displacement_ITER5 FLOAT
 -1.104824e-20  -1.422899e-22  0 
 3.079717e-04  -1.049464e-03  0 
 2.019283e-21  -2.992284e-21  0 
 5.374043e-04  -1.792926e-03  0 
 1.043846e-04  -8.446626e-05  0 
 1.152965e-04  -2.852295e-04  0 
 1.456863e-04  -5.022122e-04  0 
 1.463604e-04  -6.542901e-04  0 
 2.040771e-04  -6.479675e-04  0 
 -1.518484e-04  -1.777298e-04  0 
 -2.850298e-04  -3.674871e-04  0 
 -3.237399e-04  -5.476264e-04  0 
 -1.934746e-04  -8.813888e-04  0 
 1.562633e-04  -1.331894e-03  0 
 0  0  0 
 0  0  0 
 0  0  0 
 0  0  0 
 0  0  0 
 3.719002e-04  -1.453918e-03  0 
 6.625504e-04  -1.570284e-03  0 
 8.649270e-04  -1.659902e-03  0 
 9.086950e-04  -1.373964e-03  0 
 9.439972e-04  -1.481359e-03  0 
 2.082773e-04  -6.950315e-04  0 
 3.411469e-04  -8.850053e-04  0 
 4.204587e-04  -1.054815e-03  0 
 7.969845e-05  -4.096890e-04  0 
 1.107643e-04  -6.265572e-04  0 
 4.074814e-04  -1.180278e-03  0 
 6.261237e-04  -1.254822e-03  0 
 2.458117e-05  -2.078825e-04  0 
 4.212764e-05  -3.606280e-04  0 
 7.090770e-04  -1.239260e-03  0 
 5.548384e-04  -1.196972e-03  0 
 4.772294e-04  -1.004087e-03  0 
 1.006710e-04  -4.661635e-04  0 
 1.876000e-04  -6.219256e-04  0 
 2.111263e-04  -8.707488e-04  0 
 1.882039e-04  -6.878941e-04  0 
 2.924963e-04  -7.822351e-04  0 
 1.057442e-04  -9.139271e-04  0 
 3.123139e-04  -8.788351e-04  0 
 3.105543e-05  -2.558639e-04  0 
 5.931635e-05  -3.565705e-04  0 
 1.712715e-04  -6.979359e-04  0 
 1.452138e-04  -5.548415e-04  0 
 2.106431e-04  -8.608414e-04  0 
 2.272996e-04  -1.141586e-03  0 
 4.418234e-04  -1.148322e-03  0 
 1.206590e-04  -3.963202e-04  0 
 -2.382097e-05  -6.293673e-04  0 
 3.419036e-04  -9.582060e-04  0 
 2.825788e-04  -1.051990e-03  0 
 4.801492e-04  -1.439727e-03  0 
VECTORS displacement_ITER6 FLOAT
 -1.194603e-20  -2.397373e-22  0 
 3.179549e-04  -1.203861e-03  0 
 1.525369e-21  -2.664589e-21  0 
 5.935523e-04  -1.720832e-03  0 
 3.703390e-05  -1.810652e-04  0 
 8.050305e-05  -2.698592e-04  0 
 7.942778e-05  -3.826712e-04  0 
 9.320032e-05  -5.192495e-04  0 
 1.470236e-04  -6.516405e-04  0 
 -5.154113e-05  -2.074551e-04  0 
 -1.796773e-04  -3.148444e-04  0 
 -2.250448e-04  -5.189143e-04  0 
 -1.398844e-04  -8.562133e-04  0 
 1.240108e-04  -1.157191e-03  0 
 0  0  0 
 0  0  0 
 0  0  0 
 0  0  0 
 0  0  0 
 4.195178e-04  -1.632506e-03  0 
 5.600234e-04  -1.763946e-03  0 
 7.512268e-04  -1.743846e-03  0 
 8.624636e-04  -1.589962e-03  0 
 9.311240e-04  -1.577570e-03  0 
 2.024478e-04  -6.771188e-04  0 
 3.064486e-04  -9.255700e-04  0 
 4.269788e-04  -1.047827e-03  0 
 3.537777e-05  -3.911514e-04  0 
 1.390869e-04  -5.887633e-04  0 
 3.942204e-04  -1.333374e-03  0 
 6.532537e-04  -1.306799e-03  0 
 2.046047e-06  -2.245268e-04  0 
 6.761889e-05  -3.369711e-04  0 
 6.452574e-04  -1.287267e-03  0 
 5.130883e-04  -1.293202e-03  0 
 4.502322e-04  -1.048397e-03  0 
 9.566371e-05  -4.380689e-04  0 
 1.291510e-04  -6.158959e-04  0 
 2.369183e-04  -8.502264e-04  0 
 1.275178e-04  -6.464024e-04  0 
 2.686702e-04  -7.930252e-04  0 
 1.661480e-04  -9.051674e-04  0 
 3.156187e-04  -8.721952e-04  0 
 1.838624e-05  -2.378799e-04  0 
 6.842069e-05  -3.274551e-04  0 
 1.805779e-04  -6.702722e-04  0 
 1.185346e-04  -5.316543e-04  0 
 1.943650e-04  -8.733530e-04  0 
 2.991565e-04  -1.117780e-03  0 
 4.693633e-04  -1.145418e-03  0 
 3.829579e-05  -3.850147e-04  0 
 5.101802e-05  -5.991103e-04  0 
 3.165850e-04  -1.018769e-03  0 
 2.969350e-04  -1.155601e-03  0 
 5.065230e-04  -1.366469e-03  0 
VECTORS displacement_ITER7 FLOAT
 -1.265219e-20  -3.260984e-22  0 
 3.412311e-04  -1.287728e-03  0 
 1.262408e-21  -2.270191e-21  0 
 5.545741e-04  -1.610884e-03  0 
 8.284556e-05  -1.649066e-04  0 
 1.155520e-04  -2.995578e-04  0 
 1.260793e-04  -3.856365e-04  0 
 1.454322e-04  -4.943899e-04  0 
 1.737523e-04  -6.963445e-04  0 
 -1.004857e-04  -1.073744e-04  0 
 -1.691030e-04  -2.607968e-04  0 
 -2.064925e-04  -4.863258e-04  0 
 -1.495853e-04  -8.109245e-04  0 
 3.967778e-05  -1.079634e-03  0 
 0  0  0 
 0  0  0 
 0  0  0 
 0  0  0 
 0  0  0 
 3.921446e-04  -1.710494e-03  0 
 5.208417e-04  -1.817621e-03  0 
 7.211274e-04  -1.730283e-03  0 
 8.799834e-04  -1.723691e-03  0 
 9.719288e-04  -1.670399e-03  0 
 2.011511e-04  -6.670583e-04  0 
 3.045097e-04  -9.288052e-04  0 
 4.173483e-04  -1.019371e-03  0 
 4.502600e-05  -4.030291e-04  0 
 1.386397e-04  -5.547059e-04  0 
 3.846853e-04  -1.370354e-03  0 
 6.878560e-04  -1.335705e-03  0 
 1.164437e-05  -2.321551e-04  0 
 6.893512e-05  -3.019383e-04  0 
 6.109472e-04  -1.283576e-03  0 
 5.048035e-04  -1.298625e-03  0 
 4.346068e-04  -1.046866e-03  0 
 9.704346e-05  -4.316596e-04  0 
 1.326141e-04  -6.200958e-04  0 
 2.286372e-04  -8.096781e-04  0 
 1.405582e-04  -6.486974e-04  0 
 2.627568e-04  -7.906234e-04  0 
 1.737561e-04  -8.794079e-04  0 
 3.103812e-04  -8.516387e-04  0 
 2.320614e-05  -2.434773e-04  0 
 7.290239e-05  -3.132879e-04  0 
 1.808493e-04  -6.499146e-04  0 
 1.190460e-04  -5.328018e-04  0 
 2.164080e-04  -8.863606e-04  0 
 3.215970e-04  -1.110573e-03  0 
 4.784914e-04  -1.129062e-03  0 
 6.287536e-05  -4.009388e-04  0 
 3.991436e-05  -5.359133e-04  0 
 3.171159e-04  -1.029882e-03  0 
 3.016054e-04  -1.215460e-03  0 
 5.307637e-04  -1.340505e-03  0 
VECTORS displacement_ITER8 FLOAT
 -1.326897e-20  -4.036318e-22  0 
 2.612207e-04  -1.292097e-03  0 
 1.264141e-21  -1.813970e-21  0 
 5.658728e-04  -1.520834e-03  0 
 1.348371e-04  -1.304032e-04  0 
 1.672198e-04  -3.190363e-04  0 
 2.131186e-04  -4.408880e-04  0 
 2.338721e-04  -5.359472e-04  0 
 2.159377e-04  -7.111605e-04  0 
 -1.227973e-04  -1.490427e-04  0 
 -1.827548e-04  -3.317319e-04  0 
 -2.116710e-04  -5.166583e-04  0 
 -1.582292e-04  -7.489123e-04  0 
 6.067986e-05  -1.047082e-03  0 
 0  0  0 
 0  0  0 
 0  0  0 
 0  0  0 
 0  0  0 
 3.292852e-04  -1.647473e-03  0 
 5.384911e-04  -1.751170e-03  0 
 7.114296e-04  -1.698635e-03  0 
 8.436929e-04  -1.734007e-03  0 
 9.789550e-04  -1.716703e-03  0 
 1.990072e-04  -6.716981e-04  0 
 2.972454e-04  -9.177089e-04  0 
 4.153542e-04  -1.005575e-03  0 
 6.650593e-05  -4.297734e-04  0 
 1.337279e-04  -5.738940e-04  0 
 3.690311e-04  -1.294981e-03  0 
 6.741679e-04  -1.315250e-03  0 
 2.693489e-05  -2.393200e-04  0 
 6.046186e-05  -3.271100e-04  0 
 5.876349e-04  -1.274903e-03  0 
 4.935168e-04  -1.268440e-03  0 
 4.183696e-04  -1.039931e-03  0 
 9.963855e-05  -4.416118e-04  0 
 1.504060e-04  -6.377022e-04  0 
 2.352773e-04  -8.078483e-04  0 
 1.734723e-04  -6.736085e-04  0 
 2.547779e-04  -7.924422e-04  0 
 1.915775e-04  -8.675992e-04  0 
 3.064366e-04  -8.473672e-04  0 
 3.082954e-05  -2.591013e-04  0 
 6.961765e-05  -3.262717e-04  0 
 1.811638e-04  -6.535122e-04  0 
 1.247540e-04  -5.513568e-04  0 
 2.326990e-04  -8.655270e-04  0 
 3.297014e-04  -1.060858e-03  0 
 4.785198e-04  -1.105660e-03  0 
 1.151582e-04  -4.288609e-04  0 
 3.523289e-05  -5.747350e-04  0 
 3.099772e-04  -1.002140e-03  0 
 2.781011e-04  -1.168708e-03  0 
 5.617481e-04  -1.318039e-03  0 
VECTORS displacement_ITER9 FLOAT
 -1.340544e-20  -4.508765e-22  0 
 1.781389e-04  -1.277425e-03  0 
 1.255808e-21  -1.394763e-21  0 
 5.912791e-04  -1.532668e-03  0 
 9.536211e-05  -1.573207e-04  0 
 1.570444e-04  -2.945291e-04  0 
 2.128694e-04  -4.516690e-04  0 
 2.307975e-04  -5.818083e-04  0 
 2.344827e-04  -7.401839e-04  0 
 -1.122298e-04  -1.939951e-04  0 
 -1.815500e-04  -3.559321e-04  0 
 -1.994023e-04  -5.262300e-04  0 
 -1.333373e-04  -7.084220e-04  0 
 1.105981e-04  -1.007467e-03  0 
 0  0  0 
 0  0  0 
 0  0  0 
 0  0  0 
 0  0  0 
 3.023017e-04  -1.587716e-03  0 
 5.368315e-04  -1.732312e-03  0 
 7.088432e-04  -1.748363e-03  0 
 8.094989e-04  -1.749162e-03  0 
 9.092341e-04  -1.736638e-03  0 
 1.937052e-04  -6.733867e-04  0 
 2.776380e-04  -9.273081e-04  0 
 4.133547e-04  -1.012691e-03  0 
 5.896674e-05  -4.339345e-04  0 
 1.375573e-04  -5.794331e-04  0 
 3.411664e-04  -1.267620e-03  0 
 6.362133e-04  -1.330199e-03  0 
 2.058698e-05  -2.423385e-04  0 
 5.990785e-05  -3.425244e-04  0 
 5.779332e-04  -1.303687e-03  0 
 4.671506e-04  -1.274824e-03  0 
 3.997296e-04  -1.047861e-03  0 
 9.944537e-05  -4.414059e-04  0 
 1.428812e-04  -6.536987e-04  0 
 2.458976e-04  -8.056408e-04  0 
 1.690397e-04  -6.950291e-04  0 
 2.419661e-04  -7.995709e-04  0 
 2.094487e-04  -8.559831e-04  0 
 2.998072e-04  -8.489752e-04  0 
 2.863236e-05  -2.584572e-04  0 
 6.898952e-05  -3.287234e-04  0 
 1.823145e-04  -6.504777e-04  0 
 1.204176e-04  -5.579546e-04  0 
 2.186307e-04  -8.847905e-04  0 
 3.315378e-04  -1.029823e-03  0 
 4.696444e-04  -1.109731e-03  0 
 1.017837e-04  -4.346324e-04  0 
 4.606459e-05  -5.912920e-04  0 
 2.879952e-04  -1.008901e-03  0 
 2.522382e-04  -1.131088e-03  0 
 5.452254e-04  -1.306057e-03  0 
VECTORS displacement_ITER10 FLOAT
 -1.309682e-20  -4.649871e-22  0 
 1.595208e-04  -1.266482e-03  0 
 1.214948e-21  -1.149167e-21  0 
 5.718342e-04  -1.546259e-03  0 
 9.317370e-05  -1.484449e-04  0 
 1.561490e-04  -2.626539e-04  0 
 1.859593e-04  -4.083211e-04  0 
 1.891878e-04  -5.840524e-04  0 
 2.142572e-04  -7.852558e-04  0 
 -1.141203e-04  -1.450579e-04  0 
 -1.677188e-04  -3.023510e-04  0 
 -1.827993e-04  -5.120701e-04  0 
 -1.148653e-04  -7.427854e-04  0 
 8.761629e-05  -9.848299e-04  0 
 0  0  0 
 0  0  0 
 0  0  0 
 0  0  0 
 0  0  0 
 3.108330e-04  -1.618559e-03  0 
 4.855266e-04  -1.747406e-03  0 
 6.771069e-04  -1.792430e-03  0 
 8.111781e-04  -1.753939e-03  0 
 8.688139e-04  -1.683932e-03  0 
 1.878194e-04  -6.629216e-04  0 
 2.673782e-04  -9.296517e-04  0 
 4.030730e-04  -1.007422e-03  0 
 4.830724e-05  -4.163886e-04  0 
 1.361486e-04  -5.551446e-04  0 
 3.265153e-04  -1.302908e-03  0 
 6.339442e-04  -1.337645e-03  0 
 1.484993e-05  -2.343914e-04  0 
 6.284241e-05  -3.175784e-04  0 
 5.752808e-04  -1.302066e-03  0 
 4.359009e-04  -1.285027e-03  0 
 3.889466e-04  -1.036148e-03  0 
 9.512329e-05  -4.322987e-04  0 
 1.332789e-04  -6.396566e-04  0 
 2.331507e-04  -7.898046e-04  0 
 1.592728e-04  -6.798939e-04  0 
 2.368689e-04  -7.896682e-04  0 
 1.981477e-04  -8.551939e-04  0 
 2.894624e-04  -8.367262e-04  0 
 2.386314e-05  -2.494560e-04  0 
 6.968656e-05  -3.156573e-04  0 
 1.755488e-04  -6.375746e-04  0 
 1.143480e-04  -5.449241e-04  0 
 2.020280e-04  -9.133870e-04  0 
 3.279067e-04  -1.049703e-03  0 
 4.621164e-04  -1.114430e-03  0 
 8.820875e-05  -4.041055e-04  0 
 4.276826e-05  -5.486648e-04  0 
 2.783734e-04  -1.025219e-03  0 
 2.341456e-04  -1.153345e-03  0 
 5.091583e-04  -1.286678e-03  0 
VECTORS displacement_ITER11 FLOAT
 -1.258131e-20  -4.619820e-22  0 
 1.488452e-04  -1.282417e-03  0 
 1.205456e-21  -9.589905e-22  0 
 5.536558e-04  -1.531602e-03  0 
 1.082495e-04  -1.402436e-04  0 
 1.681056e-04  -2.735851e-04  0 
 2.027654e-04  -4.032056e-04  0 
 2.136325e-04  -5.699835e-04  0 
 2.248608e-04  -7.949513e-04  0 
 -1.014657e-04  -1.561180e-04  0 
 -1.469467e-04  -3.216355e-04  0 
 -1.558075e-04  -5.237069e-04  0 
 -8.496782e-05  -7.601173e-04  0 
 9.362359e-05  -9.752849e-04  0 
 0  0  0 
 0  0  0 
 0  0  0 
 0  0  0 
 0  0  0 
 3.205758e-04  -1.602925e-03  0 
 4.633403e-04  -1.721346e-03  0 
 6.399791e-04  -1.780979e-03  0 
 7.872753e-04  -1.747425e-03  0 
 8.546041e-04  -1.671492e-03  0 
 1.826063e-04  -6.667575e-04  0 
 2.600876e-04  -9.358610e-04  0 
 3.927856e-04  -1.008265e-03  0 
 4.918651e-05  -4.236747e-04  0 
 1.357939e-04  -5.545241e-04  0 
 3.292562e-04  -1.296815e-03  0 
 6.251075e-04  -1.337525e-03  0 
 1.663562e-05  -2.375036e-04  0 
 6.429058e-05  -3.175746e-04  0 
 5.547172e-04  -1.297520e-03  0 
 4.151535e-04  -1.284351e-03  0 
 3.749932e-04  -1.037552e-03  0 
 9.277285e-05  -4.348475e-04  0 
 1.311972e-04  -6.469233e-04  0 
 2.305588e-04  -7.916474e-04  0 
 1.655494e-04  -6.816099e-04  0 
 2.298753e-04  -7.953011e-04  0 
 2.027188e-04  -8.600354e-04  0 
 2.810387e-04  -8.392467e-04  0 
 2.374825e-05  -2.535829e-04  0 
 6.901035e-05  -3.149755e-04  0 
 1.716227e-04  -6.382919e-04  0 
 1.112960e-04  -5.508665e-04  0 
 2.170491e-04  -9.069317e-04  0 
 3.340062e-04  -1.058695e-03  0 
 4.545017e-04  -1.115954e-03  0 
 9.519706e-05  -4.112286e-04  0 
 5.242544e-05  -5.553847e-04  0 
 2.775520e-04  -1.027182e-03  0 
 2.446374e-04  -1.147289e-03  0 
 5.023725e-04  -1.283902e-03  0 
VECTORS displacement_ITER12 FLOAT
 -1.191823e-20  -4.425191e-22  0 
 1.604488e-04  -1.278701e-03  0 
 1.138939e-21  -8.586568e-22  0 
 5.388071e-04  -1.525949e-03  0 
 1.094759e-04  -1.479039e-04  0 
 1.749270e-04  -2.855070e-04  0 
 2.207082e-04  -4.153828e-04  0 
 2.299978e-04  -5.723603e-04  0 
 2.158112e-04  -8.086608e-04  0 
 -9.859149e-05  -1.622239e-04  0 
 -1.435935e-04  -3.287316e-04  0 
 -1.471585e-04  -5.160010e-04  0 
 -7.167064e-05  -7.414692e-04  0 
 1.038790e-04  -9.712099e-04  0 
 0  0  0 
 0  0  0 
 0  0  0 
 0  0  0 
 0  0  0 
 2.908274e-04  -1.607148e-03  0 
 4.724340e-04  -1.721994e-03  0 
 6.487418e-04  -1.767891e-03  0 
 7.794024e-04  -1.747667e-03  0 
 8.336603e-04  -1.689534e-03  0 
 1.801794e-04  -6.696200e-04  0 
 2.586936e-04  -9.344925e-04  0 
 3.883813e-04  -1.012021e-03  0 
 5.196249e-05  -4.328492e-04  0 
 1.377084e-04  -5.540037e-04  0 
 3.233407e-04  -1.287777e-03  0 
 6.096240e-04  -1.347124e-03  0 
 1.884832e-05  -2.432958e-04  0 
 6.522972e-05  -3.189738e-04  0 
 5.481739e-04  -1.304444e-03  0 
 4.211240e-04  -1.280634e-03  0 
 3.714401e-04  -1.043213e-03  0 
 9.248383e-05  -4.363624e-04  0 
 1.315137e-04  -6.533055e-04  0 
 2.334065e-04  -7.899633e-04  0 
 1.683202e-04  -6.857792e-04  0 
 2.259511e-04  -7.992771e-04  0 
 2.066596e-04  -8.517766e-04  0 
 2.783858e-04  -8.428811e-04  0 
 2.511329e-05  -2.581109e-04  0 
 6.967229e-05  -3.147640e-04  0 
 1.721614e-04  -6.377666e-04  0 
 1.102384e-04  -5.565832e-04  0 
 2.177021e-04  -9.025668e-04  0 
 3.311274e-04  -1.054590e-03  0 
 4.465956e-04  -1.119148e-03  0 
 1.007921e-04  -4.254533e-04  0 
 5.740492e-05  -5.565813e-04  0 
 2.752042e-04  -1.021756e-03  0 
 2.319332e-04  -1.161251e-03  0 
 4.952756e-04  -1.290996e-03  0 
VECTORS displacement_ITER13 FLOAT
 -1.118264e-20  -4.175086e-22  0 
 1.699429e-04  -1.294775e-03  0 
 1.053507e-21  -7.930229e-22  0 
 5.165935e-04  -1.499876e-03  0 
 1.040881e-04  -1.462595e-04  0 
 1.737266e-04  -2.775602e-04  0 
 2.277394e-04  -4.181625e-04  0 
 2.407112e-04  -5.816879e-04  0 
 2.265975e-04  -8.135326e-04  0 
 -1.048176e-04  -1.596730e-04  0 
 -1.525034e-04  -3.303083e-04  0 
 -1.580548e-04  -5.177328e-04  0 
 -8.000386e-05  -7.352148e-04  0 
 1.035386e-04  -9.752792e-04  0 
 0  0  0 
 0  0  0 
 0  0  0 
 0  0  0 
 0  0  0 
 2.777342e-04  -1.605801e-03  0 
 4.691755e-04  -1.728986e-03  0 
 6.503823e-04  -1.754251e-03  0 
 7.760694e-04  -1.746007e-03  0 
 8.311030e-04  -1.695221e-03  0 
 1.802429e-04  -6.715579e-04  0 
 2.602860e-04  -9.343731e-04  0 
 3.850429e-04  -1.010979e-03  0 
 5.326015e-05  -4.335624e-04  0 
 1.351114e-04  -5.566784e-04  0 
 3.168801e-04  -1.288738e-03  0 
 6.041291e-04  -1.346619e-03  0 
 1.861153e-05  -2.416414e-04  0 
 6.316863e-05  -3.202976e-04  0 
 5.434129e-04  -1.302432e-03  0 
 4.242988e-04  -1.276933e-03  0 
 3.703815e-04  -1.044184e-03  0 
 9.299050e-05  -4.383505e-04  0 
 1.349687e-04  -6.564598e-04  0 
 2.310195e-04  -7.897131e-04  0 
 1.730901e-04  -6.912676e-04  0 
 2.260477e-04  -8.011127e-04  0 
 2.023053e-04  -8.491852e-04  0 
 2.774178e-04  -8.439821e-04  0 
 2.534656e-05  -2.585595e-04  0 
 6.894477e-05  -3.170086e-04  0 
 1.716513e-04  -6.395260e-04  0 
 1.115873e-04  -5.592750e-04  0 
 2.206662e-04  -9.089838e-04  0 
 3.258854e-04  -1.050694e-03  0 
 4.418322e-04  -1.116679e-03  0 
 1.024064e-04  -4.253257e-04  0 
 5.081230e-05  -5.585815e-04  0 
 2.748608e-04  -1.022282e-03  0 
 2.341377e-04  -1.168925e-03  0 
 4.944380e-04  -1.294953e-03  0 
VECTORS displacement_ITER14 FLOAT
 -1.031901e-20  -3.859581e-22  0 
 1.619758e-04  -1.310948e-03  0 
 9.565868e-22  -7.405835e-22  0 
 5.157328e-04  -1.480446e-03  0 
 1.039990e-04  -1.441639e-04  0 
 1.701029e-04  -2.770122e-04  0 
 2.193926e-04  -4.146316e-04  0 
 2.343792e-04  -5.786766e-04  0 
 2.275200e-04  -8.060804e-04  0 
 -1.016379e-04  -1.597733e-04  0 
 -1.484082e-04  -3.313067e-04  0 
 -1.559271e-04  -5.239790e-04  0 
 -8.107083e-05  -7.347762e-04  0 
 1.046310e-04  -9.693517e-04  0 
 0  0  0 
 0  0  0 
 0  0  0 
 0  0  0 
 0  0  0 
 2.863518e-04  -1.613776e-03  0 
 4.631779e-04  -1.732084e-03  0 
 6.388352e-04  -1.756531e-03  0 
 7.756183e-04  -1.753766e-03  0 
 8.260339e-04  -1.690219e-03  0 
 1.803492e-04  -6.709620e-04  0 
 2.587652e-04  -9.375598e-04  0 
 3.850836e-04  -1.010034e-03  0 
 5.131256e-05  -4.313018e-04  0 
 1.349875e-04  -5.567180e-04  0 
 3.186588e-04  -1.296138e-03  0 
 6.056465e-04  -1.346912e-03  0 
 1.739590e-05  -2.402756e-04  0 
 6.355230e-05  -3.195292e-04  0 
 5.397926e-04  -1.301416e-03  0 
 4.198904e-04  -1.282266e-03  0 
 3.692363e-04  -1.045340e-03  0 
 9.282924e-05  -4.374235e-04  0 
 1.328225e-04  -6.556523e-04  0 
 2.311935e-04  -7.897236e-04  0 
 1.697624e-04  -6.909916e-04  0 
 2.257129e-04  -8.015051e-04  0 
 2.046475e-04  -8.512984e-04  0 
 2.776193e-04  -8.436245e-04  0 
 2.456025e-05  -2.571028e-04  0 
 6.882049e-05  -3.166353e-04  0 
 1.717240e-04  -6.391904e-04  0 
 1.107711e-04  -5.578144e-04  0 
 2.192196e-04  -9.104749e-04  0 
 3.283258e-04  -1.047536e-03  0 
 4.432002e-04  -1.115089e-03  0 
 9.895595e-05  -4.222944e-04  0 
 5.177520e-05  -5.601835e-04  0 
 2.741507e-04  -1.026751e-03  0 
 2.383129e-04  -1.168490e-03  0 
 4.954129e-04  -1.287503e-03  0 
VECTORS displacement_ITER15 FLOAT
 -9.418502e-21  -3.514409e-22  0 
 1.597219e-04  -1.308985e-03  0 
 8.752839e-22  -6.758180e-22  0 
 5.151521e-04  -1.462420e-03  0 
 1.058173e-04  -1.475506e-04  0 
 1.743559e-04  -2.787625e-04  0 
 2.205308e-04  -4.121844e-04  0 
 2.358405e-04  -5.771304e-04  0 
 2.309082e-04  -8.070046e-04  0 
 -1.001015e-04  -1.565368e-04  0 
 -1.432562e-04  -3.273440e-04  0 
 -1.474252e-04  -5.218213e-04  0 
 -7.511661e-05  -7.349126e-04  0 
 1.062357e-04  -9.640611e-04  0 
 0  0  0 
 0  0  0 
 0  0  0 
 0  0  0 
 0  0  0 
 2.843160e-04  -1.613606e-03  0 
 4.640675e-04  -1.725378e-03  0 
 6.382413e-04  -1.766310e-03  0 
 7.758589e-04  -1.759858e-03  0 
 8.217847e-04  -1.692337e-03  0 
 1.797528e-04  -6.696206e-04  0 
 2.568562e-04  -9.378171e-04  0 
 3.858857e-04  -1.009633e-03  0 
 5.097620e-05  -4.320370e-04  0 
 1.364592e-04  -5.531264e-04  0 
 3.193912e-04  -1.292333e-03  0 
 6.065656e-04  -1.349494e-03  0 
 1.782586e-05  -2.422047e-04  0 
 6.479318e-05  -3.169397e-04  0 
 5.405794e-04  -1.304199e-03  0 
 4.158797e-04  -1.282951e-03  0 
 3.673981e-04  -1.044407e-03  0 
 9.267020e-05  -4.363159e-04  0 
 1.318030e-04  -6.559463e-04  0 
 2.321845e-04  -7.871181e-04  0 
 1.700889e-04  -6.902520e-04  0 
 2.245086e-04  -8.007916e-04  0 
 2.081526e-04  -8.508011e-04  0 
 2.769025e-04  -8.417691e-04  0 
 2.469186e-05  -2.573802e-04  0 
 6.948044e-05  -3.145956e-04  0 
 1.717893e-04  -6.367812e-04  0 
 1.102079e-04  -5.574622e-04  0 
 2.202878e-04  -9.095157e-04  0 
 3.328553e-04  -1.047385e-03  0 
 4.450906e-04  -1.115995e-03  0 
 9.928489e-05  -4.230387e-04  0 
 5.502565e-05  -5.553847e-04  0 
 2.734486e-04  -1.026533e-03  0 
 2.372418e-04  -1.166424e-03  0 
 4.980843e-04  -1.282760e-03  0 
VECTORS displacement_ITER16 FLOAT
 -8.499433e-21  -3.157550e-22  0 
 1.558141e-04  -1.297964e-03  0 
 7.874693e-22  -6.265306e-22  0 
 5.145604e-04  -1.447225e-03  0 
 1.090493e-04  -1.448487e-04  0 
 1.777937e-04  -2.778049e-04  0 
 2.248293e-04  -4.145036e-04  0 
 2.372698e-04  -5.805185e-04  0 
 2.282873e-04  -8.115813e-04  0 
 -1.025506e-04  -1.608983e-04  0 
 -1.488470e-04  -3.291005e-04  0 
 -1.513729e-04  -5.204638e-04  0 
 -7.745387e-05  -7.360468e-04  0 
 1.051890e-04  -9.661091e-04  0 
 0  0  0 
 0  0  0 
 0  0  0 
 0  0  0 
 0  0  0 
 2.790139e-04  -1.612502e-03  0 
 4.654170e-04  -1.720311e-03  0 
 6.428393e-04  -1.764073e-03  0 
 7.751923e-04  -1.751379e-03  0 
 8.248997e-04  -1.693360e-03  0 
 1.800978e-04  -6.692455e-04  0 
 2.577049e-04  -9.348326e-04  0 
 3.866726e-04  -1.008271e-03  0 
 5.245834e-05  -4.323010e-04  0 
 1.360190e-04  -5.546169e-04  0 
 3.182046e-04  -1.287619e-03  0 
 6.060052e-04  -1.344572e-03  0 
 1.885960e-05  -2.419962e-04  0 
 6.380644e-05  -3.195531e-04  0 
 5.430059e-04  -1.301859e-03  0 
 4.170798e-04  -1.278489e-03  0 
 3.683531e-04  -1.041664e-03  0 
 9.287511e-05  -4.367275e-04  0 
 1.334229e-04  -6.546760e-04  0 