# vtk DataFile Version 3.1
this is an vtk file created by FEMAC
ASCII
DATASET UNSTRUCTURED_GRID
POINTS 57 FLOAT
2.000000 2.000000 0.000000
2.000000 3.000000 0.000000
3.000000 2.000000 0.000000
3.000000 3.000000 0.000000
2.000000 2.166667 0.000000
2.000000 2.333333 0.000000
2.000000 2.500000 0.000000
2.000000 2.666667 0.000000
2.000000 2.833333 0.000000
2.166667 2.000000 0.000000
2.333333 2.000000 0.000000
2.500000 2.000000 0.000000
2.666667 2.000000 0.000000
2.833333 2.000000 0.000000
2.166667 3.000000 0.000000
2.333333 3.000000 0.000000
2.500000 3.000000 0.000000
2.666667 3.000000 0.000000
2.833333 3.000000 0.000000
3.000000 2.166667 0.000000
3.000000 2.333333 0.000000
3.000000 2.500000 0.000000
3.000000 2.666667 0.000000
3.000000 2.833333 0.000000
2.545995 2.477650 0.000000
2.792381 2.334048 0.000000
2.282576 2.657014 0.000000
2.723444 2.676778 0.000000
2.255710 2.304595 0.000000
2.138028 2.747656 0.000000
2.529118 2.288808 0.000000
2.563190 2.642205 0.000000
2.779401 2.496917 0.000000
2.270149 2.481829 0.000000
2.400746 2.382454 0.000000
2.602894 2.815739 0.000000
2.414508 2.567341 0.000000
2.720446 2.185961 0.000000
2.138307 2.562900 0.000000
2.892122 2.415875 0.000000
2.655421 2.541595 0.000000
2.885449 2.584843 0.000000
2.663124 2.379852 0.000000
2.223360 2.144225 0.000000
2.238055 2.847371 0.000000
2.877358 2.754983 0.000000
2.886165 2.254340 0.000000
2.127535 2.401797 0.000000
2.419222 2.789953 0.000000
2.523037 2.116834 0.000000
2.770061 2.860694 0.000000
2.114990 2.238992 0.000000
2.382320 2.206703 0.000000
2.108550 2.885672 0.000000
2.101003 2.109977 0.000000
2.887989 2.121393 0.000000
2.896150 2.889802 0.000000
CELLS 88 352 
3 29  8  7
3 24 34 30
3 28 34 33
3 36 24 31
3 36 26 33
3 7 38 29
3 38 26 29
3 21 39 20
3 25 39 32
3 24 40 31
3 27 40 32
3 40 27 31
3 41 21 22
3 41 27 32
3 42 24 30
3 42 25 32
3 44 15 14
3 23 45 22
3 46 19 20
3 39 46 20
3 39 25 46
3 45 41 22
3 27 41 45
3 41 39 21
3 32 39 41
3 42 40 24
3 32 40 42
3 36 34 24
3 33 34 36
3 47  6  5
3 47 28 33
3 6 38  7
3 47 38  6
3 26 38 33
3 33 38 47
3 42 37 25
3 30 37 42
3 16 35 17
3 27 35 31
3 10 43  9
3 46 25 37
3 26 44 29
3 48 44 26
3 50 35 27
3 45 50 27
3 4 51  5
3 52 30 34
3 8 53  1
3 53 14  1
3 36 48 26
3 36 31 48
3 28 52 34
3 28 43 52
3 51 47  5
3 28 47 51
3 52 49 30
3 14 53 44
3 53 29 44
3 29 53  8
3 51 43 28
3 35 50 17
3 11 49 10
3 52 43 10
3 10 49 52
3 49 11 12
3 49 37 30
3 37 49 12
3 48 35 16
3 35 48 31
3 15 44 48
3 15 48 16
3 50 18 17
3 54  4  0
3 54  9 43
3 9 54  0
3 55 13  2
3 19 55  2
3 18 56  3
3 56 23  3
3 54 51  4
3 43 51 54
3 56 18 50
3 45 56 50
3 56 45 23
3 55 46 37
3 46 55 19
3 13 37 12
3 37 13 55
CELL_TYPES 88
5 5 5 5 5 5 5 5 5 5 5 5 5 5 5 5 5 5 5 5 5 5 5 5 5 5 5 5 5 5 5 5 5 5 5 5 5 5 5 5 5 5 5 5 5 5 5 5 5 5 5 5 5 5 5 5 5 5 5 5 5 5 5 5 5 5 5 5 5 5 5 5 5 5 5 5 5 5 5 5 5 5 5 5 5 5 5 5 
POINT_DATA 57
VECTORS displacement_ITER1 FLOAT
 -1.182963e-03  -3.921794e-03  0 
 1.690476e-03  -3.885177e-03  0 
 -1.858967e-03  -8.762384e-03  0 
 1.896793e-03  -8.707708e-03  0 
 -9.255260e-04  -4.148019e-03  0 
 -4.485502e-04  -4.213281e-03  0 
 1.232881e-04  -4.235442e-03  0 
 6.924791e-04  -4.204877e-03  0 
 1.238638e-03  -4.124793e-03  0 
 -1.449553e-03  -4.737413e-03  0 
 -1.585143e-03  -5.435469e-03  0 
 -1.691159e-03  -6.172043e-03  0 
 -1.778474e-03  -6.911157e-03  0 
 -1.828751e-03  -7.709768e-03  0 
 1.847576e-03  -4.764037e-03  0 
 1.919622e-03  -5.491866e-03  0 
 1.969152e-03  -6.212526e-03  0 
 1.986001e-03  -6.931467e-03  0 
 1.973588e-03  -7.720487e-03  0 
 -1.107632e-03  -8.433149e-03  0 
 -4.521591e-04  -8.238419e-03  0 
 1.604324e-04  -8.170896e-03  0 
 7.624961e-04  -8.210826e-03  0 
 1.351671e-03  -8.365181e-03  0 
 7.517448e-05  -6.329500e-03  0 
 -4.031140e-04  -7.389062e-03  0 
 6.311629e-04  -5.252550e-03  0 
 7.320745e-04  -7.134602e-03  0 
 -4.883956e-04  -5.090894e-03  0 
 9.370724e-04  -4.656823e-03  0 
 -5.378525e-04  -6.231223e-03  0 
 5.987828e-04  -6.432634e-03  0 
 1.547329e-04  -7.304483e-03  0 
 6.715552e-05  -5.214746e-03  0 
 -2.316804e-04  -5.705203e-03  0 
 1.215198e-03  -6.645272e-03  0 
 3.433185e-04  -5.796865e-03  0 
 -9.420317e-04  -7.107543e-03  0 
 3.314305e-04  -4.720818e-03  0 
 -1.300747e-04  -7.772288e-03  0 
 2.847511e-04  -6.803000e-03  0 
 4.559995e-04  -7.744533e-03  0 
 -2.319261e-04  -6.814446e-03  0 
 -9.707363e-04  -4.894861e-03  0 
 1.266806e-03  -5.030158e-03  0 
 1.026987e-03  -7.816282e-03  0 
 -7.094013e-04  -7.837558e-03  0 
 -2.048694e-04  -4.669067e-03  0 
 1.093254e-03  -5.820564e-03  0 
 -1.207448e-03  -6.209547e-03  0 
 1.378129e-03  -7.414018e-03  0 
 -7.036753e-04  -4.533365e-03  0 
 -8.124705e-04  -5.581303e-03  0 
 1.356782e-03  -4.449166e-03  0 
 -1.009704e-03  -4.370100e-03  0 
 -1.238093e-03  -7.962568e-03  0 
 1.476411e-03  -8.035444e-03  0 
VECTORS displacement_ITER2 FLOAT
 -9.249649e-04  -3.285602e-03  0 
 1.151470e-03  -3.194154e-03  0 
 -1.726478e-03  -7.574287e-03  0 
 1.506942e-03  -7.540966e-03  0 
 -8.218734e-04  -3.548902e-03  0 
 -4.588091e-04  -3.611693e-03  0 
 -1.356586e-05  -3.627510e-03  0 
 4.377035e-04  -3.589501e-03  0 
 8.492934e-04  -3.497101e-03  0 
 -1.218328e-03  -4.034031e-03  0 
 -1.370829e-03  -4.605117e-03  0 
 -1.486998e-03  -5.222466e-03  0 
 -1.590445e-03  -5.830676e-03  0 
 -1.655471e-03  -6.528812e-03  0 
 1.326018e-03  -4.017660e-03  0 
 1.415199e-03  -4.633112e-03  0 
 1.468453e-03  -5.227956e-03  0 
 1.495239e-03  -5.825632e-03  0 
 1.522207e-03  -6.515701e-03  0 
 -1.041242e-03  -7.146027e-03  0 
 -4.877778e-04  -6.921349e-03  0 
 7.868088e-06  -6.835967e-03  0 
 4.811360e-04  -6.888390e-03  0 
 9.722390e-04  -7.074718e-03  0 
 -5.810800e-05  -5.320346e-03  0 
 -4.337977e-04  -6.213788e-03  0 
 3.705052e-04  -4.419721e-03  0 
 4.499110e-04  -5.997486e-03  0 
 -4.873585e-04  -4.294678e-03  0 
 6.104402e-04  -3.924903e-03  0 
 -5.326486e-04  -5.241182e-03  0 
 3.454588e-04  -5.404035e-03  0 
 2.782605e-06  -6.135992e-03  0 
 -6.110362e-05  -4.402399e-03  0 
 -2.909692e-04  -4.802387e-03  0 
 8.428323e-04  -5.583155e-03  0 
 1.468425e-04  -4.875267e-03  0 
 -8.677084e-04  -5.986311e-03  0 
 1.468758e-04  -4.004678e-03  0 
 -2.199847e-04  -6.523411e-03  0 
 1.024003e-04  -5.716709e-03  0 
 2.360730e-04  -6.500934e-03  0 
 -2.955235e-04  -5.728010e-03  0 
 -8.464698e-04  -4.127064e-03  0 
 8.584493e-04  -4.220695e-03  0 
 6.859184e-04  -6.579308e-03  0 
 -6.873793e-04  -6.605041e-03  0 
 -2.709869e-04  -3.965491e-03  0 
 7.348924e-04  -4.888247e-03  0 
 -1.085659e-03  -5.229151e-03  0 
 9.759872e-04  -6.234645e-03  0 
 -6.499413e-04  -3.845292e-03  0 
 -7.443615e-04  -4.696483e-03  0 
 9.087475e-04  -3.723365e-03  0 
 -8.478271e-04  -3.683865e-03  0 
 -1.127086e-03  -6.747073e-03  0 
 1.060320e-03  -6.800039e-03  0 
VECTORS displacement_ITER3 FLOAT
 -1.094498e-03  -2.867006e-03  0 
 9.991449e-04  -2.812115e-03  0 
 -1.876270e-03  -7.257021e-03  0 
 1.381581e-03  -7.240659e-03  0 
 -9.832333e-04  -3.187435e-03  0 
 -6.101222e-04  -3.263091e-03  0 
 -1.749876e-04  -3.281287e-03  0 
 2.805833e-04  -3.245098e-03  0 
 7.169268e-04  -3.145361e-03  0 
 -1.387169e-03  -3.664920e-03  0 
 -1.533611e-03  -4.254928e-03  0 
 -1.641657e-03  -4.884541e-03  0 
 -1.740960e-03  -5.503286e-03  0 
 -1.810034e-03  -6.199004e-03  0 
 1.187755e-03  -3.660801e-03  0 
 1.274278e-03  -4.288940e-03  0 
 1.326162e-03  -4.889315e-03  0 
 1.356966e-03  -5.500691e-03  0 
 1.392358e-03  -6.193768e-03  0 
 -1.195020e-03  -6.810183e-03  0 
 -6.432364e-04  -6.582297e-03  0 
 -1.434161e-04  -6.502792e-03  0 
 3.398659e-04  -6.557081e-03  0 
 8.381815e-04  -6.750051e-03  0 
 -2.075376e-04  -4.978183e-03  0 
 -5.862512e-04  -5.877789e-03  0 
 2.187067e-04  -4.076743e-03  0 
 3.028424e-04  -5.659267e-03  0 
 -6.365912e-04  -3.944264e-03  0 
 4.610686e-04  -3.581081e-03  0 
 -6.812925e-04  -4.900754e-03  0 
 1.959830e-04  -5.062906e-03  0 
 -1.475786e-04  -5.796173e-03  0 
 -2.126826e-04  -4.055411e-03  0 
 -4.399553e-04  -4.457145e-03  0 
 6.954850e-04  -5.246636e-03  0 
 -3.449338e-06  -4.531895e-03  0 
 -1.018937e-03  -5.653553e-03  0 
 -9.349799e-06  -3.659502e-03  0 
 -3.739463e-04  -6.186259e-03  0 
 -4.725264e-05  -5.375739e-03  0 
 8.888475e-05  -6.164219e-03  0 
 -4.455833e-04  -5.388633e-03  0 
 -9.959290e-04  -3.769153e-03  0 
 7.084714e-04  -3.872235e-03  0 
 5.449816e-04  -6.248651e-03  0 
 -8.408075e-04  -6.271044e-03  0 
 -4.240051e-04  -3.614386e-03  0 
 5.846493e-04  -4.546759e-03  0 
 -1.235968e-03  -4.894580e-03  0 
 8.350257e-04  -5.905202e-03  0 
 -8.016262e-04  -3.489749e-03  0 
 -8.914880e-04  -4.351010e-03  0 
 7.623631e-04  -3.359193e-03  0 
 -9.999571e-04  -3.309621e-03  0 
 -1.277016e-03  -6.418622e-03  0 
 9.228632e-04  -6.478552e-03  0 
VECTORS displacement_ITER4 FLOAT
 -1.029530e-03  -3.166205e-03  0 
 7.186213e-04  -3.166204e-03  0 
 -1.768421e-03  -7.216378e-03  0 
 1.107289e-03  -7.190179e-03  0 
 -9.655243e-04  -3.504546e-03  0 
 -6.373255e-04  -3.581413e-03  0 
 -2.577283e-04  -3.605258e-03  0 
 1.346397e-04  -3.582699e-03  0 
 5.081843e-04  -3.491511e-03  0 
 -1.317835e-03  -3.932652e-03  0 
 -1.455881e-03  -4.475259e-03  0 
 -1.561572e-03  -5.038803e-03  0 
 -1.654112e-03  -5.604330e-03  0 
 -1.716509e-03  -6.238105e-03  0 
 9.135343e-04  -3.945971e-03  0 
 1.004946e-03  -4.505845e-03  0 
 1.060707e-03  -5.041049e-03  0 
 1.094136e-03  -5.595317e-03  0 
 1.125641e-03  -6.220197e-03  0 
 -1.172207e-03  -6.783539e-03  0 
 -6.806229e-04  -6.564310e-03  0 
 -2.345362e-04  -6.489824e-03  0 
 1.960505e-04  -6.535229e-03  0 
 6.317833e-04  -6.717391e-03  0 
 -2.869582e-04  -5.116661e-03  0 
 -6.223697e-04  -5.932394e-03  0 
 8.062960e-05  -4.306514e-03  0 
 1.558089e-04  -5.732104e-03  0 
 -6.566128e-04  -4.185342e-03  0 
 2.873005e-04  -3.868443e-03  0 
 -6.974748e-04  -5.049481e-03  0 
 6.100958e-05  -5.192174e-03  0 
 -2.360790e-04  -5.851691e-03  0 
 -2.892837e-04  -4.289777e-03  0 
 -4.857565e-04  -4.648730e-03  0 
 4.989874e-04  -5.361211e-03  0 
 -1.109820e-04  -4.715004e-03  0 
 -1.001753e-03  -5.738426e-03  0 
 -1.130316e-04  -3.939508e-03  0 
 -4.384790e-04  -6.205818e-03  0 
 -1.493398e-04  -5.474152e-03  0 
 -2.741825e-05  -6.183358e-03  0 
 -4.944048e-04  -5.487979e-03  0 
 -9.647726e-04  -4.022218e-03  0 
 4.972783e-04  -4.122844e-03  0 
 3.710660e-04  -6.266964e-03  0 
 -8.508382e-04  -6.292284e-03  0 
 -4.733431e-04  -3.895291e-03  0 
 3.974131e-04  -4.726905e-03  0 
 -1.195407e-03  -5.046233e-03  0 
 6.236939e-04  -5.960695e-03  0 
 -8.013929e-04  -3.775348e-03  0 
 -8.806296e-04  -4.551047e-03  0 
 5.334564e-04  -3.662496e-03  0 
 -9.605792e-04  -3.594281e-03  0 
 -1.234139e-03  -6.439602e-03  0 
 6.985146e-04  -6.483398e-03  0 
VECTORS displacement_ITER5 FLOAT
 -9.928336e-04  -3.289991e-03  0 
 5.670275e-04  -3.302807e-03  0 
 -1.720485e-03  -7.163233e-03  0 
 9.538017e-04  -7.119941e-03  0 
 -9.544284e-04  -3.632625e-03  0 
 -6.606913e-04  -3.707826e-03  0 
 -3.066414e-04  -3.731061e-03  0 
 5.906293e-05  -3.710382e-03  0 
 3.993774e-04  -3.622812e-03  0 
 -1.279746e-03  -4.028300e-03  0 
 -1.419752e-03  -4.540552e-03  0 
 -1.523699e-03  -5.077368e-03  0 
 -1.614213e-03  -5.618589e-03  0 
 -1.674077e-03  -6.224169e-03  0 
 7.724776e-04  -4.045332e-03  0 
 8.661967e-04  -4.574204e-03  0 
 9.222218e-04  -5.081496e-03  0 
 9.543214e-04  -5.605947e-03  0 
 9.807422e-04  -6.198853e-03  0 
 -1.164416e-03  -6.733650e-03  0 
 -7.010906e-04  -6.516388e-03  0 
 -2.853521e-04  -6.441413e-03  0 
 1.153510e-04  -6.484568e-03  0 
 5.209193e-04  -6.662448e-03  0 
 -3.320449e-04  -5.148648e-03  0 
 -6.431544e-04  -5.921455e-03  0 
 4.004790e-06  -4.384609e-03  0 
 7.478500e-05  -5.732061e-03  0 
 -6.713320e-04  -4.267198e-03  0 
 1.956444e-04  -3.970970e-03  0 
 -7.083351e-04  -5.085204e-03  0 
 -1.404138e-05  -5.220826e-03  0 
 -2.852387e-04  -5.842138e-03  0 
 -3.349812e-04  -4.371186e-03  0 
 -5.133810e-04  -4.706598e-03  0 
 3.926833e-04  -5.383392e-03  0 
 -1.721469e-04  -4.770382e-03  0 
 -9.949255e-04  -5.742918e-03  0 
 -1.719746e-04  -4.043523e-03  0 
 -4.737666e-04  -6.177050e-03  0 
 -2.062105e-04  -5.486409e-03  0 
 -9.261550e-05  -6.154369e-03  0 
 -5.223477e-04  -5.499710e-03  0 
 -9.520826e-04  -4.107288e-03  0 
 3.857173e-04  -4.206859e-03  0 
 2.758607e-04  -6.237900e-03  0 
 -8.580274e-04  -6.264687e-03  0 
 -5.065658e-04  -4.000687e-03  0 
 2.957819e-04  -4.780418e-03  0 
 -1.176473e-03  -5.083128e-03  0 
 5.088363e-04  -5.952938e-03  0 
 -8.058766e-04  -3.880052e-03  0 
 -8.774457e-04  -4.610971e-03  0 
 4.134454e-04  -3.769925e-03  0 
 -9.405868e-04  -3.702809e-03  0 
 -1.216192e-03  -6.414139e-03  0 
 5.775708e-04  -6.449404e-03  0 
VECTORS displacement_ITER6 FLOAT
 -9.688341e-04  -3.383270e-03  0 
 4.874459e-04  -3.443620e-03  0 
 -1.681963e-03  -7.174009e-03  0 
 8.610991e-04  -7.110133e-03  0 
 -9.369712e-04  -3.738683e-03  0 
 -6.628343e-04  -3.822576e-03  0 
 -3.259998e-04  -3.851405e-03  0 
 2.202687e-05  -3.834341e-03  0 
 3.423722e-04  -3.752688e-03  0 
 -1.250481e-03  -4.119739e-03  0 
 -1.389596e-03  -4.619960e-03  0 
 -1.490787e-03  -5.143824e-03  0 
 -1.578678e-03  -5.667943e-03  0 
 -1.637077e-03  -6.255611e-03  0 
 6.959964e-04  -4.156340e-03  0 
 7.907642e-04  -4.662984e-03  0 
 8.459635e-04  -5.150349e-03  0 
 8.748839e-04  -5.652047e-03  0 
 8.959662e-04  -6.223901e-03  0 
 -1.145877e-03  -6.746343e-03  0 
 -6.996089e-04  -6.530272e-03  0 
 -3.021778e-04  -6.451722e-03  0 
 7.809522e-05  -6.491999e-03  0 
 4.622537e-04  -6.664865e-03  0 
 -3.449351e-04  -5.210327e-03  0 
 -6.415953e-04  -5.956824e-03  0 
 -3.023579e-05  -4.477633e-03  0 
 3.853438e-05  -5.773864e-03  0 
 -6.660255e-04  -4.355979e-03  0 
 1.507033e-04  -4.081559e-03  0 
 -7.015125e-04  -5.148633e-03  0 
 -4.599851e-05  -5.281621e-03  0 
 -3.005905e-04  -5.878223e-03  0 
 -3.494332e-04  -4.462323e-03  0 
 -5.159466e-04  -4.782671e-03  0 
 3.388538e-04  -5.440146e-03  0 
 -1.955001e-04  -4.847292e-03  0 
 -9.785077e-04  -5.787119e-03  0 
 -1.966921e-04  -4.150563e-03  0 
 -4.805299e-04  -6.201205e-03  0 
 -2.263692e-04  -5.536251e-03  0 
 -1.187463e-04  -6.177206e-03  0 
 -5.250740e-04  -5.548828e-03  0 
 -9.323693e-04  -4.196183e-03  0 
 3.294253e-04  -4.306876e-03  0 
 2.288318e-04  -6.259156e-03  0 
 -8.487656e-04  -6.290276e-03  0 
 -5.136437e-04  -4.104725e-03  0 
 2.459039e-04  -4.858847e-03  0 
 -1.153576e-03  -5.148394e-03  0 
 4.473525e-04  -5.988533e-03  0 
 -7.950136e-04  -3.979097e-03  0 
 -8.624109e-04  -4.688035e-03  0 
 3.520860e-04  -3.887661e-03  0 
 -9.181088e-04  -3.800323e-03  0 
 -1.192709e-03  -6.439610e-03  0 
 5.109453e-04  -6.466726e-03  0 
VECTORS displacement_ITER7 FLOAT
 -9.801963e-04  -3.388713e-03  0 
 4.791200e-04  -3.488697e-03  0 
 -1.693181e-03  -7.206137e-03  0 
 8.500761e-04  -7.128373e-03  0 
 -9.411756e-04  -3.753926e-03  0 
 -6.644751e-04  -3.845190e-03  0 
 -3.284176e-04  -3.878671e-03  0 
 1.715878e-05  -3.864809e-03  0 
 3.348684e-04  -3.788475e-03  0 
 -1.258407e-03  -4.140462e-03  0 
 -1.395151e-03  -4.645078e-03  0 
 -1.496953e-03  -5.168925e-03  0 
 -1.585587e-03  -5.693401e-03  0 
 -1.645094e-03  -6.283476e-03  0 
 6.884501e-04  -4.192864e-03  0 
 7.846226e-04  -4.694208e-03  0 
 8.403984e-04  -5.178687e-03  0 
 8.684669e-04  -5.676884e-03  0 
 8.877248e-04  -6.247842e-03  0 
 -1.151139e-03  -6.776732e-03  0 
 -7.025215e-04  -6.559647e-03  0 
 -3.038240e-04  -6.477931e-03  0 
 7.547932e-05  -6.516571e-03  0 
 4.567254e-04  -6.686866e-03  0 
 -3.459508e-04  -5.236293e-03  0 
 -6.437827e-04  -5.983523e-03  0 
 -3.224169e-05  -4.505832e-03  0 
 3.678778e-05  -5.800149e-03  0 
 -6.673417e-04  -4.379656e-03  0 
 1.467472e-04  -4.112874e-03  0 
 -7.039914e-04  -5.173867e-03  0 
 -4.726521e-05  -5.308416e-03  0 
 -3.016527e-04  -5.904692e-03  0 
 -3.507010e-04  -4.487682e-03  0 
 -5.172995e-04  -4.807522e-03  0 
 3.357310e-04  -5.467082e-03  0 
 -1.965772e-04  -4.873793e-03  0 
 -9.826994e-04  -5.813134e-03  0 
 -1.991150e-04  -4.177619e-03  0 
 -4.819854e-04  -6.228281e-03  0 
 -2.273739e-04  -5.562652e-03  0 
 -1.202943e-04  -6.203097e-03  0 
 -5.267325e-04  -5.574853e-03  0 
 -9.353728e-04  -4.219376e-03  0 
 3.256855e-04  -4.338926e-03  0 
 2.255718e-04  -6.283920e-03  0 
 -8.523117e-04  -6.318241e-03  0 
 -5.147694e-04  -4.129003e-03  0 
 2.433427e-04  -4.887425e-03  0 
 -1.158391e-03  -5.173448e-03  0 
 4.425621e-04  -6.013930e-03  0 
 -7.964167e-04  -4.000473e-03  0 
 -8.654160e-04  -4.712529e-03  0 
 3.467551e-04  -3.924228e-03  0 
 -9.221719e-04  -3.818389e-03  0 
 -1.198721e-03  -6.467533e-03  0 
 5.049408e-04  -6.490241e-03  0 
VECTORS displacement_ITER8 FLOAT
 -1.005301e-03  -3.372471e-03  0 
 4.638935e-04  -3.494169e-03  0 
 -1.722488e-03  -7.212131e-03  0 
 8.297356e-04  -7.128283e-03  0 
 -9.622557e-04  -3.742888e-03  0 
 -6.838106e-04  -3.837918e-03  0 
 -3.478484e-04  -3.873190e-03  0 
 -1.450516e-06  -3.859707e-03  0 
 3.193285e-04  -3.785652e-03  0 
 -1.282215e-03  -4.131650e-03  0 
 -1.417571e-03  -4.639704e-03  0 
 -1.519817e-03  -5.165163e-03  0 
 -1.609843e-03  -5.692100e-03  0 
 -1.671166e-03  -6.284999e-03  0 
 6.735107e-04  -4.191604e-03  0 
 7.692648e-04  -4.692459e-03  0 
 8.246057e-04  -5.177610e-03  0 
 8.521789e-04  -5.676406e-03  0 
 8.696158e-04  -6.247198e-03  0 
 -1.173188e-03  -6.780657e-03  0 
 -7.218138e-04  -6.561579e-03  0 
 -3.211507e-04  -6.478998e-03  0 
 5.958595e-05  -6.516647e-03  0 
 4.393348e-04  -6.685842e-03  0 
 -3.633976e-04  -5.234168e-03  0 
 -6.625404e-04  -5.983143e-03  0 
 -4.911980e-05  -4.503685e-03  0 
 2.039010e-05  -5.799999e-03  0 
 -6.865266e-04  -4.373684e-03  0 
 1.304383e-04  -4.110718e-03  0 
 -7.234558e-04  -5.170348e-03  0 
 -6.376547e-05  -5.307471e-03  0 
 -3.186132e-04  -5.904107e-03  0 
 -3.690643e-04  -4.483126e-03  0 
 -5.359415e-04  -4.803278e-03  0 
 3.193529e-04  -5.466708e-03  0 
 -2.136818e-04  -4.871439e-03  0 
 -1.003753e-03  -5.811423e-03  0 
 -2.178469e-04  -4.173048e-03  0 
 -4.999477e-04  -6.228743e-03  0 
 -2.442507e-04  -5.561656e-03  0 
 -1.366426e-04  -6.203050e-03  0 
 -5.448947e-04  -5.573116e-03  0 
 -9.558631e-04  -4.212715e-03  0 
 3.107420e-04  -4.337761e-03  0 
 2.092067e-04  -6.284287e-03  0 
 -8.723005e-04  -6.319230e-03  0 
 -5.337402e-04  -4.122768e-03  0 
 2.274557e-04  -4.886460e-03  0 
 -1.179862e-03  -5.169642e-03  0 
 4.256231e-04  -6.014449e-03  0 
 -8.158841e-04  -3.992703e-03  0 
 -8.856136e-04  -4.707525e-03  0 
 3.328370e-04  -3.923574e-03  0 
 -9.434393e-04  -3.808559e-03  0 
 -1.222018e-03  -6.468739e-03  0 
 4.868621e-04  -6.490541e-03  0 
VECTORS displacement_ITER9 FLOAT
 -9.835209e-04  -3.375059e-03  0 
 4.120159e-04  -3.517844e-03  0 
 -1.708635e-03  -7.151783e-03  0 
 7.761731e-04  -7.067076e-03  0 
 -9.528379e-04  -3.749715e-03  0 
 -6.870074e-04  -3.846311e-03  0 
 -3.630953e-04  -3.883464e-03  0 
 -2.819997e-05  -3.871874e-03  0 
 2.806589e-04  -3.800593e-03  0 
 -1.261471e-03  -4.127082e-03  0 
 -1.397422e-03  -4.625250e-03  0 
 -1.500122e-03  -5.140135e-03  0 
 -1.591335e-03  -5.655210e-03  0 
 -1.654172e-03  -6.236384e-03  0 
 6.216544e-04  -4.194297e-03  0 
 7.175959e-04  -4.680673e-03  0 
 7.727287e-04  -5.152387e-03  0 
 8.004788e-04  -5.639209e-03  0 
 8.174125e-04  -6.196366e-03  0 
 -1.165510e-03  -6.721785e-03  0 
 -7.241159e-04  -6.501493e-03  0 
 -3.352563e-04  -6.418699e-03  0 
 3.366130e-05  -6.454956e-03  0 
 4.006704e-04  -6.623535e-03  0 
 -3.753269e-04  -5.205258e-03  0 
 -6.650807e-04  -5.937050e-03  0 
 -7.402201e-05  -4.495333e-03  0 
 -6.070980e-06  -5.758598e-03  0 
 -6.866559e-04  -4.363926e-03  0 
 9.881104e-05  -4.114154e-03  0 
 -7.228614e-04  -5.141846e-03  0 
 -8.746219e-05  -5.277958e-03  0 
 -3.319117e-04  -5.858777e-03  0 
 -3.818159e-04  -4.473860e-03  0 
 -5.414938e-04  -4.783953e-03  0 
 2.821788e-04  -5.434127e-03  0 
 -2.320038e-04  -4.852543e-03  0 
 -9.972994e-04  -5.769539e-03  0 
 -2.368158e-04  -4.174189e-03  0 
 -5.079504e-04  -6.175988e-03  0 
 -2.606728e-04  -5.525180e-03  0 
 -1.563544e-04  -6.150055e-03  0 
 -5.502592e-04  -5.535641e-03  0 
 -9.444273e-04  -4.204364e-03  0 
 2.721863e-04  -4.334114e-03  0 
 1.766541e-04  -6.231545e-03  0 
 -8.696335e-04  -6.266639e-03  0 
 -5.413016e-04  -4.122863e-03  0 
 1.928609e-04  -4.868128e-03  0 
 -1.167976e-03  -5.142198e-03  0 
 3.847500e-04  -5.969572e-03  0 
 -8.115151e-04  -3.991986e-03  0 
 -8.789983e-04  -4.689034e-03  0 
 2.917507e-04  -3.931755e-03  0 
 -9.291762e-04  -3.807418e-03  0 
 -1.212637e-03  -6.415328e-03  0 
 4.430333e-04  -6.436496e-03  0 
VECTORS displacement_ITER10 FLOAT
 -9.735956e-04  -3.373021e-03  0 
 3.944738e-04  -3.523000e-03  0 
 -1.708339e-03  -7.128297e-03  0 
 7.605417e-04  -7.048113e-03  0 
 -9.508637e-04  -3.748168e-03  0 
 -6.895024e-04  -3.843845e-03  0 
 -3.688039e-04  -3.881272e-03  0 
 -3.743908e-05  -3.871181e-03  0 
 2.667629e-04  -3.801703e-03  0 
 -1.254414e-03  -4.121185e-03  0 
 -1.392018e-03  -4.615312e-03  0 
 -1.495743e-03  -5.126816e-03  0 
 -1.588090e-03  -5.638562e-03  0 
 -1.651947e-03  -6.216733e-03  0 
 6.039270e-04  -4.190654e-03  0 
 7.006843e-04  -4.671980e-03  0 
 7.563547e-04  -5.139664e-03  0 
 7.848441e-04  -5.623938e-03  0 
 8.023247e-04  -6.177931e-03  0 
 -1.165688e-03  -6.699800e-03  0 
 -7.263087e-04  -6.478872e-03  0 
 -3.405185e-04  -6.396103e-03  0 
 2.455857e-05  -6.432403e-03  0 
 3.883538e-04  -6.602046e-03  0 
 -3.804248e-04  -5.191245e-03  0 
 -6.673788e-04  -5.917877e-03  0 
 -8.272011e-05  -4.487549e-03  0 
 -1.547643e-05  -5.741574e-03  0 
 -6.882538e-04  -4.355500e-03  0 
 8.798527e-05  -4.110398e-03  0 
 -7.242047e-04  -5.127400e-03  0 
 -9.605139e-05  -5.263989e-03  0 
 -3.372908e-04  -5.840250e-03  0 
 -3.870795e-04  -4.465881e-03  0 
 -5.447100e-04  -4.772626e-03  0 
 2.698141e-04  -5.419389e-03  0 
 -2.389485e-04  -4.841610e-03  0 
 -9.972972e-04  -5.751160e-03  0 
 -2.436015e-04  -4.169441e-03  0 
 -5.116394e-04  -6.155246e-03  0 
 -2.670867e-04  -5.509175e-03  0 
 -1.635605e-04  -6.129795e-03  0 
 -5.533537e-04  -5.518879e-03  0 
 -9.417486e-04  -4.196047e-03  0 
 2.592423e-04  -4.327998e-03  0 
 1.655959e-04  -6.211927e-03  0 
 -8.706271e-04  -6.245672e-03  0 
 -5.451067e-04  -4.117788e-03  0 
 1.812191e-04  -4.857230e-03  0 
 -1.165983e-03  -5.127873e-03  0 
 3.715643e-04  -5.952053e-03  0 
 -8.116833e-04  -3.986706e-03  0 
 -8.783405e-04  -4.677491e-03  0 
 2.777320e-04  -3.930510e-03  0 
 -9.247917e-04  -3.801978e-03  0 
 -1.212617e-03  -6.393968e-03  0 
 4.291756e-04  -6.417465e-03  0 
VECTORS displacement_ITER11 FLOAT
 -9.668186e-04  -3.379486e-03  0 
 3.892729e-04  -3.532001e-03  0 
 -1.706777e-03  -7.123038e-03  0 
 7.549198e-04  -7.046806e-03  0 
 -9.485543e-04  -3.754432e-03  0 
 -6.892194e-04  -3.848996e-03  0 
 -3.701171e-04  -3.885850e-03  0 
 -3.994828e-05  -3.876230e-03  0 
 2.630420e-04  -3.808366e-03  0 
 -1.249442e-03  -4.124992e-03  0 
 -1.387985e-03  -4.617057e-03  0 
 -1.492190e-03  -5.127115e-03  0 
 -1.584842e-03  -5.637417e-03  0 
 -1.649247e-03  -6.213788e-03  0 
 5.981891e-04  -4.195048e-03  0 
 6.952061e-04  -4.674336e-03  0 
 7.508965e-04  -5.140287e-03  0 
 7.793032e-04  -5.622924e-03  0 
 7.971338e-04  -6.175827e-03  0 
 -1.163432e-03  -6.695910e-03  0 
 -7.254469e-04  -6.474951e-03  0 
 -3.410991e-04  -6.391823e-03  0 
 2.221375e-05  -6.428334e-03  0 
 3.844963e-04  -6.598716e-03  0 
 -3.810365e-04  -5.191467e-03  0 
 -6.665552e-04  -5.915549e-03  0 
 -8.477299e-05  -4.490584e-03  0 
 -1.801804e-05  -5.740388e-03  0 
 -6.876804e-04  -4.357965e-03  0 
 8.531448e-05  -4.115031e-03  0 
 -7.232549e-04  -5.127147e-03  0 
 -9.816620e-05  -5.264289e-03  0 
 -3.379070e-04  -5.838283e-03  0 
 -3.880542e-04  -4.468588e-03  0 
 -5.447269e-04  -4.773868e-03  0 
 2.660328e-04  -5.419211e-03  0 
 -2.403724e-04  -4.843277e-03  0 
 -9.956651e-04  -5.748995e-03  0 
 -2.452289e-04  -4.173336e-03  0 
 -5.114179e-04  -6.152119e-03  0 
 -2.682300e-04  -5.508485e-03  0 
 -1.650691e-04  -6.126867e-03  0 
 -5.529873e-04  -5.517706e-03  0 
 -9.390393e-04  -4.198551e-03  0 
 2.556566e-04  -4.331582e-03  0 
 1.621991e-04  -6.209384e-03  0 
 -8.691582e-04  -6.242482e-03  0 
 -5.455924e-04  -4.121586e-03  0 
 1.779268e-04  -4.858858e-03  0 
 -1.163452e-03  -5.127706e-03  0 
 3.671093e-04  -5.950401e-03  0 
 -8.104646e-04  -3.990765e-03  0 
 -8.765317e-04  -4.678520e-03  0 
 2.739595e-04  -3.936295e-03  0 
 -9.212259e-04  -3.806054e-03  0 
 -1.210825e-03  -6.390097e-03  0 
 4.243430e-04  -6.415430e-03  0 
VECTORS displacement_ITER12 FLOAT
 -9.585531e-04  -3.379863e-03  0 
 3.784258e-04  -3.530859e-03  0 
 -1.703134e-03  -7.105816e-03  0 
 7.464366e-04  -7.031383e-03  0 
 -9.452269e-04  -3.753703e-03  0 
 -6.888031e-04  -3.847681e-03  0 
 -3.724064e-04  -3.884199e-03  0 
 -4.483748e-05  -3.874535e-03  0 
 2.554131e-04  -3.807086e-03  0 
 -1.242849e-03  -4.121441e-03  0 
 -1.382207e-03  -4.610243e-03  0 
 -1.487048e-03  -5.117703e-03  0 
 -1.580053e-03  -5.625532e-03  0 
 -1.644850e-03  -6.199518e-03  0 
 5.878431e-04  -4.191222e-03  0 
 6.853718e-04  -4.667782e-03  0 
 7.415487e-04  -5.131372e-03  0 
 7.702476e-04  -5.611393e-03  0 
 7.883735e-04  -6.162388e-03  0 
 -1.161203e-03  -6.679335e-03  0 
 -7.254205e-04  -6.458525e-03  0 
 -3.432590e-04  -6.375490e-03  0 
 1.793207e-05  -6.412403e-03  0 
 3.780418e-04  -6.582982e-03  0 
 -3.830361e-04  -5.181154e-03  0 
 -6.665349e-04  -5.901719e-03  0 
 -8.944647e-05  -4.484364e-03  0 
 -2.270149e-05  -5.727839e-03  0 
 -6.870063e-04  -4.352144e-03  0 
 7.921615e-05  -4.111185e-03  0 
 -7.224848e-04  -5.116931e-03  0 
 -1.025105e-04  -5.253850e-03  0 
 -3.401101e-04  -5.824778e-03  0 
 -3.901487e-04  -4.462533e-03  0 
 -5.453305e-04  -4.765686e-03  0 
 2.593875e-04  -5.408439e-03  0 
 -2.437031e-04  -4.834995e-03  0 
 -9.936459e-04  -5.736004e-03  0 
 -2.485226e-04  -4.169411e-03  0 
 -5.124831e-04  -6.137078e-03  0 
 -2.711080e-04  -5.496682e-03  0 
 -1.684164e-04  -6.112114e-03  0 
 -5.535732e-04  -5.505627e-03  0 
 -9.354871e-04  -4.193312e-03  0 
 2.479975e-04  -4.326174e-03  0 
 1.566313e-04  -6.195002e-03  0 
 -8.680850e-04  -6.227350e-03  0 
 -5.464191e-04  -4.117923e-03  0 
 1.713611e-04  -4.850614e-03  0 
 -1.160071e-03  -5.117685e-03  0 
 3.600144e-04  -5.937473e-03  0 
 -8.085905e-04  -3.987511e-03  0 
 -8.743196e-04  -4.670597e-03  0 
 2.654353e-04  -3.933092e-03  0 
 -9.166676e-04  -3.803116e-03  0 
 -1.208252e-03  -6.374680e-03  0 
 4.170529e-04  -6.401026e-03  0 
VECTORS displacement_ITER13 FLOAT
 -9.664874e-04  -3.385947e-03  0 
 3.733425e-04  -3.534511e-03  0 
 -1.713327e-03  -7.114718e-03  0 
 7.419251e-04  -7.040225e-03  0 
 -9.534538e-04  -3.758783e-03  0 
 -6.964831e-04  -3.852559e-03  0 
 -3.796468e-04  -3.888936e-03  0 
 -5.148088e-05  -3.878864e-03  0 
 2.495897e-04  -3.810952e-03  0 
 -1.251324e-03  -4.127100e-03  0 
 -1.390889e-03  -4.616198e-03  0 
 -1.495996e-03  -5.124434e-03  0 
 -1.589247e-03  -5.632715e-03  0 
 -1.654471e-03  -6.207234e-03  0 
 5.829881e-04  -4.196058e-03  0 
 6.803811e-04  -4.673505e-03  0 
 7.365511e-04  -5.138082e-03  0 
 7.652244e-04  -5.618584e-03  0 
 7.833453e-04  -6.170314e-03  0 
 -1.169940e-03  -6.687983e-03  0 
 -7.331362e-04  -6.466846e-03  0 
 -3.503064e-04  -6.383734e-03  0 
 1.154808e-05  -6.420741e-03  0 
 3.722059e-04  -6.591414e-03  0 
 -3.903747e-04  -5.187660e-03  0 
 -6.743340e-04  -5.909130e-03  0 
 -9.619749e-05  -4.489880e-03  0 
 -2.914242e-05  -5.735198e-03  0 
 -6.949233e-04  -4.357743e-03  0 
 7.285936e-05  -4.115975e-03  0 
 -7.305339e-04  -5.123320e-03  0 
 -1.091710e-04  -5.260530e-03  0 
 -3.472340e-04  -5.832233e-03  0 
 -3.975297e-04  -4.468032e-03  0 
 -5.530546e-04  -4.771649e-03  0 
 2.535265e-04  -5.415403e-03  0 
 -2.507512e-04  -4.841023e-03  0 
 -1.002150e-03  -5.743015e-03  0 
 -2.556362e-04  -4.174427e-03  0 
 -5.198780e-04  -6.144944e-03  0 
 -2.781269e-04  -5.503671e-03  0 
 -1.751623e-04  -6.120003e-03  0 
 -5.612369e-04  -5.512521e-03  0 
 -9.438274e-04  -4.198921e-03  0 
 2.421669e-04  -4.331449e-03  0 
 1.505298e-04  -6.202960e-03  0 
 -8.762162e-04  -6.235152e-03  0 
 -5.539791e-04  -4.123069e-03  0 
 1.652654e-04  -4.856779e-03  0 
 -1.168631e-03  -5.124209e-03  0 
 3.543583e-04  -5.945056e-03  0 
 -8.166430e-04  -3.992814e-03  0 
 -8.825503e-04  -4.676594e-03  0 
 2.598198e-04  -3.937498e-03  0 
 -9.250448e-04  -3.808499e-03  0 
 -1.217244e-03  -6.382521e-03  0 
 4.115462e-04  -6.408999e-03  0 
VECTORS displacement_ITER14 FLOAT
 -9.650212e-04  -3.385594e-03  0 
 3.726852e-04  -3.531019e-03  0 
 -1.713978e-03  -7.112833e-03  0 
 7.426992e-04  -7.037404e-03  0 
 -9.528938e-04  -3.757399e-03  0 
 -6.962332e-04  -3.850734e-03  0 
 -3.795328e-04  -3.886911e-03  0 
 -5.155888e-05  -3.876527e-03  0 
 2.493477e-04  -3.808180e-03  0 
 -1.250430e-03  -4.125393e-03  0 
 -1.390196e-03  -4.613994e-03  0 
 -1.495597e-03  -5.122061e-03  0 
 -1.589196e-03  -5.630231e-03  0 
 -1.654586e-03  -6.204941e-03  0 
 5.828219e-04  -4.193524e-03  0 
 6.802523e-04  -4.670957e-03  0 
 7.365035e-04  -5.135574e-03  0 
 7.653336e-04  -5.616050e-03  0 
 7.835769e-04  -6.167795e-03  0 
 -1.170043e-03  -6.685656e-03  0 
 -7.331679e-04  -6.464236e-03  0 
 -3.504813e-04  -6.381203e-03  0 
 1.149636e-05  -6.418198e-03  0 
 3.724226e-04  -6.588913e-03  0 
 -3.904481e-04  -5.184974e-03  0 
 -6.743666e-04  -5.906520e-03  0 
 -9.639679e-05  -4.487236e-03  0 
 -2.916973e-05  -5.732456e-03  0 
 -6.947973e-04  -4.355487e-03  0 
 7.258354e-05  -4.113304e-03  0 
 -7.304764e-04  -5.120710e-03  0 
 -1.092642e-04  -5.257803e-03  0 
 -3.473254e-04  -5.829573e-03  0 
 -3.975668e-04  -4.465577e-03  0 
 -5.530492e-04  -4.769119e-03  0 
 2.535195e-04  -5.412721e-03  0 
 -2.508772e-04  -4.838362e-03  0 
 -1.002071e-03  -5.740389e-03  0 
 -2.556913e-04  -4.172052e-03  0 
 -5.199833e-04  -6.142363e-03  0 
 -2.782048e-04  -5.500954e-03  0 
 -1.752636e-04  -6.117356e-03  0 
 -5.612730e-04  -5.509861e-03  0 
 -9.434319e-04  -4.196884e-03  0 
 2.418615e-04  -4.328768e-03  0 
 1.506059e-04  -6.200257e-03  0 
 -8.761998e-04  -6.232570e-03  0 
 -5.538676e-04  -4.120940e-03  0 
 1.650945e-04  -4.854117e-03  0 
 -1.168398e-03  -5.121615e-03  0 
 3.545305e-04  -5.942361e-03  0 
 -8.163555e-04  -3.990934e-03  0 