# vtk DataFile Version 3.1
this is an vtk file created by FEMAC
ASCII
DATASET UNSTRUCTURED_GRID
POINTS 58 FLOAT
4.000000 4.000000 0.000000
4.000000 5.000000 0.000000
5.000000 4.000000 0.000000
5.000000 5.000000 0.000000
4.000000 4.166667 0.000000
4.000000 4.333333 0.000000
4.000000 4.500000 0.000000
4.000000 4.666667 0.000000
4.000000 4.833333 0.000000
4.166667 4.000000 0.000000
4.333333 4.000000 0.000000
4.500000 4.000000 0.000000
4.666667 4.000000 0.000000
4.833333 4.000000 0.000000
4.166667 5.000000 0.000000
4.333333 5.000000 0.000000
4.500000 5.000000 0.000000
4.666667 5.000000 0.000000
4.833333 5.000000 0.000000
5.000000 4.166667 0.000000
5.000000 4.333333 0.000000
5.000000 4.500000 0.000000
5.000000 4.666667 0.000000
5.000000 4.833333 0.000000
4.411766 4.452421 0.000000
4.362603 4.788204 0.000000
4.259367 4.522253 0.000000
4.531112 4.740489 0.000000
4.730692 4.468323 0.000000
4.558024 4.158096 0.000000
4.394815 4.629954 0.000000
4.556383 4.360983 0.000000
4.583582 4.587620 0.000000
4.593072 4.869827 0.000000
4.242147 4.683149 0.000000
4.213119 4.244885 0.000000
4.868276 4.726214 0.000000
4.216642 4.852650 0.000000
4.709817 4.264298 0.000000
4.702585 4.763712 0.000000
4.864683 4.552019 0.000000
4.464024 4.879704 0.000000
4.110731 4.757843 0.000000
4.852776 4.865451 0.000000
4.851606 4.150392 0.000000
4.749963 4.619577 0.000000
4.729687 4.899798 0.000000
4.882430 4.347436 0.000000
4.122836 4.584208 0.000000
4.138961 4.398602 0.000000
4.091420 4.249603 0.000000
4.098808 4.888765 0.000000
4.156471 4.113105 0.000000
4.385401 4.260423 0.000000
4.302619 4.142060 0.000000
4.412213 4.113420 0.000000
4.281723 4.375717 0.000000
4.723889 4.114557 0.000000
CELLS 90 360 
3 24 30 26
3 25 30 27
3 32 30 24
3 27 30 32
3 31 32 24
3 31 28 32
3 23 36 22
3 34 30 25
3 34 26 30
3 16 33 17
3 16 41 33
3 41 27 33
3 42  8  7
3 42 34 37
3 18 43  3
3 43 23  3
3 44 13  2
3 19 44  2
3 41 25 27
3 22 40 21
3 22 36 40
3 25 37 34
3 31 38 28
3 38 31 29
3 32 39 27
3 39 33 27
3 28 45 32
3 39 45 36
3 45 39 32
3 33 46 17
3 46 33 39
3 48 42  7
3 42 48 34
3 40 45 28
3 40 36 45
3 6 48  7
3 48 26 34
3 49  6  5
3 46 18 17
3 47 19 20
3 15 25 41
3 25 15 37
3 14 37 15
3 41 16 15
3 21 47 20
3 21 40 47
3 40 28 47
3 38 47 28
3 44 19 47
3 47 38 44
3 43 18 46
3 43 36 23
3 39 36 43
3 43 46 39
3 51 14  1
3 14 51 37
3 8 51  1
3 52  4  0
3 9 52  0
3 42 51  8
3 42 37 51
3 52 50  4
3 4 50  5
3 49 50 35
3 50 49  5
3 6 49 48
3 49 26 48
3 35 54 53
3 55 10 11
3 55 29 53
3 29 55 11
3 35 56 49
3 56 26 49
3 56 24 26
3 55 54 10
3 53 54 55
3 35 50 52
3 54 35 52
3 53 31 24
3 53 24 56
3 53 29 31
3 56 35 53
3 12 29 11
3 54  9 10
3 52  9 54
3 12 57 29
3 38 57 44
3 57 38 29
3 13 57 12
3 13 44 57
CELL_TYPES 90
5 5 5 5 5 5 5 5 5 5 5 5 5 5 5 5 5 5 5 5 5 5 5 5 5 5 5 5 5 5 5 5 5 5 5 5 5 5 5 5 5 5 5 5 5 5 5 5 5 5 5 5 5 5 5 5 5 5 5 5 5 5 5 5 5 5 5 5 5 5 5 5 5 5 5 5 5 5 5 5 5 5 5 5 5 5 5 5 5 5 
POINT_DATA 58
VECTORS displacement_ITER1 FLOAT
 8.585750e-03  -1.789511e-02  0 
 1.280038e-02  -1.850066e-02  0 
 8.586586e-03  -2.291349e-02  0 
 1.311288e-02  -2.305235e-02  0 
 9.310551e-03  -1.810996e-02  0 
 1.006427e-02  -1.824464e-02  0 
 1.081034e-02  -1.833193e-02  0 
 1.152453e-02  -1.840415e-02  0 
 1.219851e-02  -1.846885e-02  0 
 8.539148e-03  -1.888982e-02  0 
 8.548173e-03  -1.974361e-02  0 
 8.567064e-03  -2.055971e-02  0 
 8.574112e-03  -2.133768e-02  0 
 8.575901e-03  -2.212352e-02  0 
 1.289388e-02  -1.918543e-02  0 
 1.296511e-02  -1.988682e-02  0 
 1.302465e-02  -2.062697e-02  0 
 1.307130e-02  -2.139287e-02  0 
 1.310643e-02  -2.218841e-02  0 
 9.342855e-03  -2.288860e-02  0 
 1.009024e-02  -2.287055e-02  0 
 1.083800e-02  -2.286355e-02  0 
 1.158866e-02  -2.288271e-02  0 
 1.234605e-02  -2.294156e-02  0 
 1.064096e-02  -2.015447e-02  0 
 1.206964e-02  -1.996347e-02  0 
 1.093732e-02  -1.947739e-02  0 
 1.188109e-02  -2.072001e-02  0 
 1.070056e-02  -2.162686e-02  0 
 9.310522e-03  -2.083428e-02  0 
 1.140073e-02  -2.009334e-02  0 
 1.023629e-02  -2.082091e-02  0 
 1.122147e-02  -2.095059e-02  0 
 1.245940e-02  -2.101977e-02  0 
 1.161849e-02  -1.942495e-02  0 
 9.721689e-03  -1.917799e-02  0 
 1.184050e-02  -2.228957e-02  0 
 1.231130e-02  -1.933763e-02  0 
 9.792692e-03  -2.154251e-02  0 
 1.199088e-02  -2.152099e-02  0 
 1.106978e-02  -2.224654e-02  0 
 1.248185e-02  -2.043221e-02  0 
 1.191502e-02  -1.888264e-02  0 
 1.246030e-02  -2.225926e-02  0 
 9.274495e-03  -2.220774e-02  0 
 1.136354e-02  -2.172413e-02  0 
 1.261403e-02  -2.166908e-02  0 
 1.015804e-02  -2.233174e-02  0 
 1.119226e-02  -1.889440e-02  0 
 1.038705e-02  -1.890483e-02  0 
 9.717242e-03  -1.861003e-02  0 
 1.242270e-02  -1.885608e-02  0 
 9.126262e-03  -1.883280e-02  0 
 9.792238e-03  -2.001064e-02  0 
 9.253418e-03  -1.959902e-02  0 
 9.108070e-03  -2.014067e-02  0 
 1.030293e-02  -1.954150e-02  0 
 9.108403e-03  -2.160926e-02  0 
VECTORS displacement_ITER2 FLOAT
 6.145482e-03  -1.377749e-02  0 
 9.012783e-03  -1.454752e-02  0 
 6.181084e-03  -1.755336e-02  0 
 9.398928e-03  -1.769466e-02  0 
 6.685249e-03  -1.401641e-02  0 
 7.237577e-03  -1.417490e-02  0 
 7.755663e-03  -1.426740e-02  0 
 8.251169e-03  -1.434804e-02  0 
 8.704368e-03  -1.444531e-02  0 
 6.117984e-03  -1.459665e-02  0 
 6.135738e-03  -1.524187e-02  0 
 6.158193e-03  -1.584738e-02  0 
 6.164233e-03  -1.641508e-02  0 
 6.170167e-03  -1.697837e-02  0 
 9.147518e-03  -1.492898e-02  0 
 9.235515e-03  -1.538806e-02  0 
 9.300417e-03  -1.589941e-02  0 
 9.352750e-03  -1.643896e-02  0 
 9.392999e-03  -1.702093e-02  0 
 6.713871e-03  -1.751938e-02  0 
 7.249014e-03  -1.749144e-02  0 
 7.779448e-03  -1.747638e-02  0 
 8.306425e-03  -1.749144e-02  0 
 8.847250e-03  -1.756201e-02  0 
 7.653447e-03  -1.555293e-02  0 
 8.635978e-03  -1.542313e-02  0 
 7.859990e-03  -1.507455e-02  0 
 8.508666e-03  -1.595250e-02  0 
 7.686517e-03  -1.660321e-02  0 
 6.702246e-03  -1.604602e-02  0 
 8.180582e-03  -1.551216e-02  0 
 7.366084e-03  -1.603118e-02  0 
 8.052415e-03  -1.611957e-02  0 
 8.912415e-03  -1.616470e-02  0 
 8.329570e-03  -1.505061e-02  0 
 7.005029e-03  -1.483303e-02  0 
 8.478873e-03  -1.707619e-02  0 
 8.789678e-03  -1.499774e-02  0 
 7.046365e-03  -1.655300e-02  0 
 8.581800e-03  -1.652575e-02  0 
 7.943055e-03  -1.704087e-02  0 
 8.921419e-03  -1.575187e-02  0 
 8.527365e-03  -1.469167e-02  0 
 8.914154e-03  -1.706911e-02  0 
 6.671446e-03  -1.703651e-02  0 
 8.147568e-03  -1.667046e-02  0 
 9.026331e-03  -1.663403e-02  0 
 7.300914e-03  -1.710829e-02  0 
 8.030333e-03  -1.467425e-02  0 
 7.471866e-03  -1.465373e-02  0 
 6.996450e-03  -1.441845e-02  0 
 8.847640e-03  -1.468992e-02  0 
 6.571332e-03  -1.455710e-02  0 
 7.053458e-03  -1.544526e-02  0 
 6.664833e-03  -1.514142e-02  0 
 6.556271e-03  -1.554124e-02  0 
 7.416331e-03  -1.510834e-02  0 
 6.552731e-03  -1.660824e-02  0 
VECTORS displacement_ITER3 FLOAT
 4.936476e-03  -1.204157e-02  0 
 7.401170e-03  -1.286988e-02  0 
 5.016541e-03  -1.541849e-02  0 
 7.825018e-03  -1.559221e-02  0 
 5.419765e-03  -1.229510e-02  0 
 5.909462e-03  -1.245842e-02  0 
 6.364202e-03  -1.255294e-02  0 
 6.796278e-03  -1.263671e-02  0 
 7.181857e-03  -1.274354e-02  0 
 4.908356e-03  -1.282010e-02  0 
 4.928450e-03  -1.340708e-02  0 
 4.958188e-03  -1.394462e-02  0 
 4.973597e-03  -1.444490e-02  0 
 4.994955e-03  -1.492868e-02  0 
 7.553846e-03  -1.315947e-02  0 
 7.647121e-03  -1.354420e-02  0 
 7.715081e-03  -1.399132e-02  0 
 7.769550e-03  -1.446722e-02  0 
 7.813769e-03  -1.498609e-02  0 
 5.457519e-03  -1.539833e-02  0 
 5.918348e-03  -1.538853e-02  0 
 6.381796e-03  -1.538553e-02  0 
 6.847275e-03  -1.539949e-02  0 
 7.327015e-03  -1.546594e-02  0 
 6.280383e-03  -1.368234e-02  0 
 7.133640e-03  -1.356830e-02  0 
 6.461431e-03  -1.326191e-02  0 
 7.024624e-03  -1.403129e-02  0 
 6.301523e-03  -1.460951e-02  0 
 5.440951e-03  -1.412647e-02  0 
 6.739728e-03  -1.364561e-02  0 
 6.025364e-03  -1.410766e-02  0 
 6.625529e-03  -1.417970e-02  0 
 7.378541e-03  -1.421960e-02  0 
 6.869054e-03  -1.324454e-02  0 
 5.712010e-03  -1.303780e-02  0 
 6.999093e-03  -1.502936e-02  0 
 7.261507e-03  -1.320181e-02  0 
 5.741261e-03  -1.457145e-02  0 
 7.089238e-03  -1.453850e-02  0 
 6.526588e-03  -1.499739e-02  0 
 7.382556e-03  -1.385636e-02  0 
 7.037802e-03  -1.293908e-02  0 
 7.384886e-03  -1.502434e-02  0 
 5.419110e-03  -1.498887e-02  0 
 6.707410e-03  -1.466796e-02  0 
 7.482514e-03  -1.463676e-02  0 
 5.960179e-03  -1.505538e-02  0 
 6.607825e-03  -1.291456e-02  0 
 6.120235e-03  -1.288628e-02  0 
 5.701151e-03  -1.266686e-02  0 
 7.302363e-03  -1.294532e-02  0 
 5.327307e-03  -1.278121e-02  0 
 5.753541e-03  -1.358887e-02  0 
 5.408909e-03  -1.331647e-02  0 
 5.310097e-03  -1.367682e-02  0 
 6.073664e-03  -1.328785e-02  0 
 5.313989e-03  -1.461858e-02  0 
VECTORS displacement_ITER4 FLOAT
 4.044174e-03  -1.140763e-02  0 
 6.468700e-03  -1.228141e-02  0 
 4.134107e-03  -1.477916e-02  0 
 6.925915e-03  -1.495180e-02  0 
 4.529417e-03  -1.166800e-02  0 
 5.015337e-03  -1.183852e-02  0 
 5.466966e-03  -1.193932e-02  0 
 5.893567e-03  -1.202635e-02  0 
 6.271609e-03  -1.213754e-02  0 
 4.016615e-03  -1.218827e-02  0 
 4.041662e-03  -1.277546e-02  0 
 4.073929e-03  -1.331592e-02  0 
 4.089284e-03  -1.381406e-02  0 
 4.110029e-03  -1.429354e-02  0 
 6.633348e-03  -1.254428e-02  0 
 6.730490e-03  -1.291954e-02  0 
 6.800911e-03  -1.336313e-02  0 
 6.857731e-03  -1.383331e-02  0 
 6.908381e-03  -1.434863e-02  0 
 4.568227e-03  -1.475680e-02  0 
 5.025185e-03  -1.474648e-02  0 
 5.482468e-03  -1.474193e-02  0 
 5.944167e-03  -1.475684e-02  0 
 6.421332e-03  -1.482482e-02  0 
 5.386496e-03  -1.305435e-02  0 
 6.227047e-03  -1.294231e-02  0 
 5.565372e-03  -1.263884e-02  0 
 6.120705e-03  -1.339871e-02  0 
 5.405080e-03  -1.397356e-02  0 
 4.553813e-03  -1.349628e-02  0 
 5.839818e-03  -1.301794e-02  0 
 5.133271e-03  -1.347672e-02  0 
 5.726555e-03  -1.354601e-02  0 
 6.470267e-03  -1.358566e-02  0 
 5.966812e-03  -1.262336e-02  0 
 4.822940e-03  -1.241221e-02  0 
 6.094903e-03  -1.438854e-02  0 
 6.351582e-03  -1.258197e-02  0 
 4.851115e-03  -1.393767e-02  0 
 6.185035e-03  -1.390003e-02  0 
 5.626477e-03  -1.435723e-02  0 
 6.472348e-03  -1.322699e-02  0 
 6.132217e-03  -1.232472e-02  0 
 6.479743e-03  -1.438248e-02  0 
 4.531137e-03  -1.435311e-02  0 
 5.806292e-03  -1.402996e-02  0 
 6.575117e-03  -1.399831e-02  0 
 5.066743e-03  -1.441653e-02  0 
 5.708855e-03  -1.229754e-02  0 
 5.227298e-03  -1.226522e-02  0 
 4.810598e-03  -1.204178e-02  0 
 6.389713e-03  -1.233300e-02  0 
 4.438111e-03  -1.215201e-02  0 
 4.864459e-03  -1.296157e-02  0 
 4.521464e-03  -1.268934e-02  0 
 4.424004e-03  -1.304858e-02  0 
 5.181971e-03  -1.266283e-02  0 
 4.426963e-03  -1.398548e-02  0 
VECTORS displacement_ITER5 FLOAT
 3.681594e-03  -1.123661e-02  0 
 6.002894e-03  -1.213616e-02  0 
 3.773177e-03  -1.454229e-02  0 
 6.476249e-03  -1.469354e-02  0 
 4.157129e-03  -1.150453e-02  0 
 4.628713e-03  -1.167868e-02  0 
 5.065304e-03  -1.178095e-02  0 
 5.473758e-03  -1.186998e-02  0 
 5.831878e-03  -1.198484e-02  0 
 3.657024e-03  -1.201363e-02  0 
 3.683870e-03  -1.258420e-02  0 
 3.716300e-03  -1.310919e-02  0 
 3.730914e-03  -1.359084e-02  0 
 3.749347e-03  -1.406035e-02  0 
 6.171904e-03  -1.237302e-02  0 
 6.272351e-03  -1.272756e-02  0 
 6.344777e-03  -1.315348e-02  0 
 6.401590e-03  -1.360529e-02  0 
 6.455356e-03  -1.410447e-02  0 
 4.194308e-03  -1.451038e-02  0 
 4.637086e-03  -1.449282e-02  0 
 5.077945e-03  -1.448335e-02  0 
 5.522004e-03  -1.449600e-02  0 
 5.981249e-03  -1.456580e-02  0 
 4.988983e-03  -1.285572e-02  0 
 5.794071e-03  -1.274681e-02  0 
 5.161170e-03  -1.245484e-02  0 
 5.692745e-03  -1.318588e-02  0 
 5.005226e-03  -1.374373e-02  0 
 4.182788e-03  -1.328357e-02  0 
 5.424220e-03  -1.281994e-02  0 
 4.744481e-03  -1.326462e-02  0 
 5.314738e-03  -1.332948e-02  0 
 6.028273e-03  -1.336569e-02  0 
 5.545837e-03  -1.244097e-02  0 
 4.444724e-03  -1.223235e-02  0 
 5.666273e-03  -1.414183e-02  0 
 5.910714e-03  -1.240251e-02  0 
 4.471773e-03  -1.371158e-02  0 
 5.754021e-03  -1.366912e-02  0 
 5.217152e-03  -1.411241e-02  0 
 6.028992e-03  -1.302040e-02  0 
 5.702575e-03  -1.215730e-02  0 
 6.037854e-03  -1.413522e-02  0 
 4.161370e-03  -1.411749e-02  0 
 5.390023e-03  -1.379646e-02  0 
 6.129900e-03  -1.376325e-02  0 
 4.678964e-03  -1.417321e-02  0 
 5.298511e-03  -1.212728e-02  0 
 4.835119e-03  -1.209276e-02  0 
 4.432032e-03  -1.187271e-02  0 
 5.943353e-03  -1.216869e-02  0 
 4.071454e-03  -1.197736e-02  0 
 4.484408e-03  -1.276559e-02  0 
 4.151833e-03  -1.250178e-02  0 
 4.056897e-03  -1.285012e-02  0 
 4.791695e-03  -1.247652e-02  0 
 4.059786e-03  -1.375818e-02  0 
VECTORS displacement_ITER6 FLOAT
 3.426655e-03  -1.104124e-02  0 
 5.785469e-03  -1.197327e-02  0 
 3.520844e-03  -1.442404e-02  0 
 6.271377e-03  -1.455602e-02  0 
 3.910117e-03  -1.131738e-02  0 
 4.391304e-03  -1.149767e-02  0 
 4.837406e-03  -1.160496e-02  0 
 5.253011e-03  -1.169784e-02  0 
 5.615793e-03  -1.181620e-02  0 
 3.400567e-03  -1.183361e-02  0 
 3.430023e-03  -1.241760e-02  0 
 3.463681e-03  -1.295691e-02  0 
 3.477928e-03  -1.344989e-02  0 
 3.496241e-03  -1.393074e-02  0 
 5.959985e-03  -1.220899e-02  0 
 6.063774e-03  -1.256853e-02  0 
 6.138117e-03  -1.300211e-02  0 
 6.195131e-03  -1.346065e-02  0 
 6.248883e-03  -1.396598e-02  0 
 3.949707e-03  -1.438723e-02  0 
 4.398994e-03  -1.436624e-02  0 
 4.848838e-03  -1.435486e-02  0 
 5.301611e-03  -1.436616e-02  0 
 5.768684e-03  -1.443329e-02  0 
 4.761257e-03  -1.269795e-02  0 
 5.578403e-03  -1.258769e-02  0 
 4.936003e-03  -1.229057e-02  0 
 5.476089e-03  -1.303369e-02  0 
 4.776591e-03  -1.360172e-02  0 
 3.939840e-03  -1.313464e-02  0 
 5.203238e-03  -1.266166e-02  0 
 4.512251e-03  -1.311474e-02  0 
 5.092133e-03  -1.317931e-02  0 
 5.816730e-03  -1.321718e-02  0 
 5.326552e-03  -1.227691e-02  0 
 4.205905e-03  -1.206111e-02  0 
 5.449467e-03  -1.400466e-02  0 
 5.696384e-03  -1.223796e-02  0 
 4.233927e-03  -1.357159e-02  0 
 5.539073e-03  -1.352423e-02  0 
 4.991663e-03  -1.397647e-02  0 
 5.817052e-03  -1.286607e-02  0 
 5.485408e-03  -1.198948e-02  0 
 5.827891e-03  -1.399615e-02  0 
 3.917271e-03  -1.398739e-02  0 
 5.168413e-03  -1.365426e-02  0 
 5.920112e-03  -1.362053e-02  0 
 4.442996e-03  -1.404086e-02  0 
 5.075338e-03  -1.195804e-02  0 
 4.603465e-03  -1.192111e-02  0 
 4.191526e-03  -1.169410e-02  0 
 5.728827e-03  -1.200169e-02  0 
 3.824295e-03  -1.179796e-02  0 
 4.247303e-03  -1.260564e-02  0 
 3.907718e-03  -1.233528e-02  0 
 3.811454e-03  -1.269138e-02  0 
 4.560070e-03  -1.231152e-02  0 
 3.813875e-03  -1.362031e-02  0 
VECTORS displacement_ITER7 FLOAT
 3.343687e-03  -1.096486e-02  0 
 5.691441e-03  -1.191735e-02  0 
 3.437491e-03  -1.436573e-02  0 
 6.182673e-03  -1.447821e-02  0 
 3.829345e-03  -1.124855e-02  0 
 4.312053e-03  -1.143280e-02  0 
 4.755285e-03  -1.154142e-02  0 
 5.168534e-03  -1.163654e-02  0 
 5.528292e-03  -1.175765e-02  0 
 3.319321e-03  -1.176660e-02  0 
 3.348890e-03  -1.235212e-02  0 
 3.382767e-03  -1.288974e-02  0 
 3.396873e-03  -1.338129e-02  0 
 3.414015e-03  -1.386408e-02  0 
 5.868311e-03  -1.214796e-02  0 
 5.973381e-03  -1.250357e-02  0 
 6.048627e-03  -1.293417e-02  0 
 6.105667e-03  -1.338980e-02  0 
 6.159362e-03  -1.389317e-02  0 
 3.868666e-03  -1.432231e-02  0 
 4.317741e-03  -1.429714e-02  0 
 4.766863e-03  -1.428325e-02  0 
 5.217217e-03  -1.429221e-02  0 
 5.681064e-03  -1.435910e-02  0 
 4.680725e-03  -1.263090e-02  0 
 5.492869e-03  -1.252148e-02  0 
 4.854677e-03  -1.222469e-02  0 
 5.391573e-03  -1.296522e-02  0 
 4.695584e-03  -1.353264e-02  0 
 3.859537e-03  -1.306703e-02  0 
 5.120612e-03  -1.259484e-02  0 
 4.432283e-03  -1.304707e-02  0 
 5.009996e-03  -1.311079e-02  0 
 5.729804e-03  -1.314775e-02  0 
 5.242864e-03  -1.221221e-02  0 
 4.126696e-03  -1.199448e-02  0 
 5.364228e-03  -1.393253e-02  0 
 5.609052e-03  -1.217444e-02  0 
 4.154267e-03  -1.350376e-02  0 
 5.454059e-03  -1.345356e-02  0 
 4.909508e-03  -1.390560e-02  0 
 5.729790e-03  -1.279841e-02  0 
 5.399994e-03  -1.192753e-02  0 
 5.741143e-03  -1.392272e-02  0 
 3.837775e-03  -1.392065e-02  0 
 5.085390e-03  -1.358419e-02  0 
 5.832496e-03  -1.354914e-02  0 
 4.362681e-03  -1.397172e-02  0 
 4.992732e-03  -1.189415e-02  0 
 4.523273e-03  -1.185528e-02  0 
 4.112356e-03  -1.162806e-02  0 
 5.639963e-03  -1.194091e-02  0 
 3.745207e-03  -1.173063e-02  0 
 4.167497e-03  -1.253854e-02  0 
 3.828201e-03  -1.226893e-02  0 
 3.731181e-03  -1.262484e-02  0 
 4.479992e-03  -1.224484e-02  0 
 3.733718e-03  -1.355216e-02  0 
VECTORS displacement_ITER8 FLOAT
 3.315672e-03  -1.094118e-02  0 
 5.685043e-03  -1.190996e-02  0 
 3.409636e-03  -1.438505e-02  0 
 6.181141e-03  -1.448645e-02  0 
 3.806572e-03  -1.122753e-02  0 
 4.294471e-03  -1.141422e-02  0 
 4.742246e-03  -1.152477e-02  0 
 5.160431e-03  -1.162176e-02  0 
 5.523414e-03  -1.174587e-02  0 
 3.291639e-03  -1.174933e-02  0 
 3.321669e-03  -1.234245e-02  0 
 3.355889e-03  -1.288695e-02  0 
 3.369647e-03  -1.338545e-02  0 
 3.386161e-03  -1.387447e-02  0 
 5.865337e-03  -1.213910e-02  0 
 5.971966e-03  -1.249714e-02  0 
 6.047778e-03  -1.293162e-02  0 
 6.105384e-03  -1.339102e-02  0 
 6.158185e-03  -1.389843e-02  0 
 3.845707e-03  -1.433738e-02  0 
 4.300373e-03  -1.430967e-02  0 
 4.754137e-03  -1.429328e-02  0 
 5.208851e-03  -1.430136e-02  0 
 5.677254e-03  -1.436737e-02  0 
 4.668183e-03  -1.262565e-02  0 
 5.487634e-03  -1.251537e-02  0 
 4.843628e-03  -1.221556e-02  0 
 5.385407e-03  -1.296306e-02  0 
 4.683123e-03  -1.353617e-02  0 
 3.838335e-03  -1.306617e-02  0 
 5.112216e-03  -1.258943e-02  0 
 4.417398e-03  -1.304603e-02  0 
 5.000600e-03  -1.311009e-02  0 
 5.726310e-03  -1.314705e-02  0 
 5.235602e-03  -1.220339e-02  0 
 4.107714e-03  -1.198168e-02  0 
 5.357729e-03  -1.393828e-02  0 
 5.604903e-03  -1.216517e-02  0 
 4.136412e-03  -1.350794e-02  0 
 5.448296e-03  -1.345559e-02  0 
 4.898632e-03  -1.391206e-02  0 
 5.726370e-03  -1.279467e-02  0 
 5.394341e-03  -1.191622e-02  0 
 5.737711e-03  -1.392838e-02  0 
 3.815693e-03  -1.393097e-02  0 
 5.076478e-03  -1.358749e-02  0 
 5.829689e-03  -1.355214e-02  0 
 4.346541e-03  -1.398039e-02  0 
 4.982798e-03  -1.188193e-02  0 
 4.508316e-03  -1.184158e-02  0 
 4.092818e-03  -1.161124e-02  0 
 5.635838e-03  -1.193022e-02  0 
 3.721661e-03  -1.171418e-02  0 
 4.149505e-03  -1.253171e-02  0 
 3.806313e-03  -1.225860e-02  0 
 3.708403e-03  -1.261869e-02  0 
 4.465012e-03  -1.223530e-02  0 
 3.710512e-03  -1.355770e-02  0 
VECTORS displacement_ITER9 FLOAT
 3.307295e-03  -1.093279e-02  0 
 5.676929e-03  -1.190948e-02  0 
 3.404383e-03  -1.438251e-02  0 
 6.173186e-03  -1.448157e-02  0 
 3.800237e-03  -1.122195e-02  0 
 4.288992e-03  -1.141058e-02  0 
 4.736585e-03  -1.152175e-02  0 
 5.154093e-03  -1.161918e-02  0 
 5.516411e-03  -1.174445e-02  0 
 3.284131e-03  -1.174526e-02  0 
 3.314646e-03  -1.233918e-02  0 
 3.349775e-03  -1.288342e-02  0 
 3.363958e-03  -1.338205e-02  0 
 3.380267e-03  -1.387108e-02  0 
 5.857797e-03  -1.213728e-02  0 
 5.964876e-03  -1.249417e-02  0 
 6.040796e-03  -1.292792e-02  0 
 6.098735e-03  -1.338698e-02  0 
 6.150837e-03  -1.389390e-02  0 
 3.839888e-03  -1.433385e-02  0 
 4.294415e-03  -1.430635e-02  0 
 4.747882e-03  -1.428971e-02  0 
 5.202443e-03  -1.429751e-02  0 
 5.670725e-03  -1.436274e-02  0 
 4.662590e-03  -1.262228e-02  0 
 5.481386e-03  -1.251208e-02  0 
 4.838008e-03  -1.221219e-02  0 
 5.379264e-03  -1.295942e-02  0 
 4.677176e-03  -1.353275e-02  0 
 3.832414e-03  -1.306313e-02  0 
 5.106395e-03  -1.258602e-02  0 
 4.411672e-03  -1.304283e-02  0 
 4.994721e-03  -1.310654e-02  0 
 5.719801e-03  -1.314316e-02  0 
 5.229635e-03  -1.220031e-02  0 
 4.102208e-03  -1.197805e-02  0 
 5.351482e-03  -1.393426e-02  0 
 5.598299e-03  -1.216252e-02  0 
 4.130608e-03  -1.350484e-02  0 
 5.441965e-03  -1.345180e-02  0 
 4.892469e-03  -1.390843e-02  0 
 5.719841e-03  -1.279112e-02  0 
 5.387986e-03  -1.191377e-02  0 
 5.731018e-03  -1.392434e-02  0 
 3.810113e-03  -1.392789e-02  0 
 5.070416e-03  -1.358375e-02  0 
 5.823051e-03  -1.354826e-02  0 
 4.340551e-03  -1.397709e-02  0 
 4.976946e-03  -1.187882e-02  0 
 4.502911e-03  -1.183807e-02  0 
 4.087326e-03  -1.160722e-02  0 
 5.628776e-03  -1.192839e-02  0 
 3.715591e-03  -1.171003e-02  0 
 4.143813e-03  -1.252855e-02  0 
 3.800329e-03  -1.225540e-02  0 
 3.702247e-03  -1.261569e-02  0 
 4.459542e-03  -1.223185e-02  0 
 3.704750e-03  -1.355436e-02  0 
VECTORS displacement_ITER10 FLOAT
 3.302618e-03  -1.093757e-02  0 
 5.669624e-03  -1.191403e-02  0 
 3.401235e-03  -1.438101e-02  0 
 6.164666e-03  -1.448202e-02  0 
 3.795505e-03  -1.122569e-02  0 
 4.283495e-03  -1.141429e-02  0 
 4.730648e-03  -1.152581e-02  0 
 5.147367e-03  -1.162311e-02  0 
 5.509385e-03  -1.174817e-02  0 
 3.279757e-03  -1.174843e-02  0 
 3.310582e-03  -1.234133e-02  0 
 3.345792e-03  -1.288519e-02  0 
 3.360046e-03  -1.338341e-02  0 
 3.376696e-03  -1.387136e-02  0 
 5.850394e-03  -1.214063e-02  0 
 5.957300e-03  -1.249695e-02  0 
 6.033003e-03  -1.293019e-02  0 
 6.090934e-03  -1.338871e-02  0 
 6.142872e-03  -1.389472e-02  0 
 3.835354e-03  -1.433320e-02  0 
 4.289230e-03  -1.430636e-02  0 
 4.742253e-03  -1.429013e-02  0 
 5.196029e-03  -1.429766e-02  0 
 5.663469e-03  -1.436264e-02  0 
 4.656757e-03  -1.262473e-02  0 
 5.474453e-03  -1.251492e-02  0 
 4.831909e-03  -1.221519e-02  0 
 5.372460e-03  -1.296162e-02  0 
 4.671405e-03  -1.353392e-02  0 
 3.827809e-03  -1.306486e-02  0 
 5.099963e-03  -1.258865e-02  0 
 4.406199e-03  -1.304466e-02  0 
 4.988485e-03  -1.310845e-02  0 
 5.712497e-03  -1.314514e-02  0 
 5.222984e-03  -1.220349e-02  0 
 4.097044e-03  -1.198122e-02  0 
 5.344820e-03  -1.393506e-02  0 
 5.591269e-03  -1.216587e-02  0 
 4.125520e-03  -1.350598e-02  0 
 5.435055e-03  -1.345344e-02  0 
 4.886581e-03  -1.390925e-02  0 
 5.712543e-03  -1.279359e-02  0 
 5.381076e-03  -1.191739e-02  0 
 5.723493e-03  -1.392536e-02  0 
 3.805490e-03  -1.392828e-02  0 
 5.064184e-03  -1.358504e-02  0 
 5.815579e-03  -1.354970e-02  0 
 4.335167e-03  -1.397757e-02  0 
 4.970581e-03  -1.188231e-02  0 
 4.497330e-03  -1.184149e-02  0 
 4.082183e-03  -1.161061e-02  0 
 5.621798e-03  -1.193213e-02  0 
 3.710652e-03  -1.171348e-02  0 
 4.138683e-03  -1.253106e-02  0 
 3.795497e-03  -1.225812e-02  0 
 3.697724e-03  -1.261786e-02  0 
 4.453995e-03  -1.223479e-02  0 
 3.700313e-03  -1.355547e-02  0 
VECTORS displacement_ITER11 FLOAT
 3.318674e-03  -1.095640e-02  0 
 5.679035e-03  -1.192953e-02  0 
 3.416805e-03  -1.438867e-02  0 
 6.173146e-03  -1.449263e-02  0 
 3.810073e-03  -1.124341e-02  0 
 4.296403e-03  -1.143134e-02  0 
 4.742430e-03  -1.154264e-02  0 
 5.158045e-03  -1.163970e-02  0 
 5.519062e-03  -1.176399e-02  0 
 3.295562e-03  -1.176468e-02  0 
 3.326384e-03  -1.235595e-02  0 
 3.361390e-03  -1.289845e-02  0 
 3.375588e-03  -1.339480e-02  0 
 3.392411e-03  -1.388107e-02  0 
 5.859302e-03  -1.215547e-02  0 
 5.965828e-03  -1.251088e-02  0 
 6.041415e-03  -1.294301e-02  0 
 6.099251e-03  -1.340060e-02  0 
 6.151471e-03  -1.390553e-02  0 
 3.849723e-03  -1.434163e-02  0 
 4.302285e-03  -1.431515e-02  0 
 4.753965e-03  -1.429928e-02  0 
 5.206688e-03  -1.430712e-02  0 
 5.672914e-03  -1.437243e-02  0 
 4.668617e-03  -1.263844e-02  0 
 5.484194e-03  -1.252886e-02  0 
 4.843347e-03  -1.223004e-02  0 
 5.382408e-03  -1.297443e-02  0 
 4.683217e-03  -1.354512e-02  0 
 3.841971e-03  -1.307736e-02  0 
 5.110624e-03  -1.260243e-02  0 
 4.418726e-03  -1.305718e-02  0 
 4.999405e-03  -1.312087e-02  0 
 5.721643e-03  -1.315749e-02  0 
 5.233351e-03  -1.221828e-02  0 
 4.110572e-03  -1.199676e-02  0 
 5.354917e-03  -1.394555e-02  0 
 5.600732e-03  -1.218076e-02  0 
 4.138810e-03  -1.351712e-02  0 
 5.444818e-03  -1.346507e-02  0 
 4.897855e-03  -1.391948e-02  0 
 5.721691e-03  -1.280676e-02  0 
 5.391019e-03  -1.193294e-02  0 
 5.732552e-03  -1.393614e-02  0 
 3.819754e-03  -1.393792e-02  0 
 5.074926e-03  -1.359623e-02  0 
 5.824549e-03  -1.356109e-02  0 
 4.347971e-03  -1.398740e-02  0 
 4.981701e-03  -1.189809e-02  0 
 4.509716e-03  -1.185742e-02  0 
 4.095754e-03  -1.162710e-02  0 
 5.631254e-03  -1.194757e-02  0 
 3.725293e-03  -1.172976e-02  0 
 4.152025e-03  -1.254508e-02  0 
 3.809876e-03  -1.227297e-02  0 
 3.712373e-03  -1.263170e-02  0 
 4.466473e-03  -1.224961e-02  0 
 3.714888e-03  -1.356640e-02  0 
VECTORS displacement_ITER12 FLOAT
 3.324945e-03  -1.096381e-02  0 
 5.688152e-03  -1.193319e-02  0 
 3.422866e-03  -1.439354e-02  0 
 6.181066e-03  -1.450011e-02  0 
 3.816230e-03  -1.124988e-02  0 
 4.302526e-03  -1.143701e-02  0 
 4.748863e-03  -1.154770e-02  0 
 5.164982e-03  -1.164440e-02  0 
 5.526640e-03  -1.176821e-02  0 
 3.301717e-03  -1.177117e-02  0 
 3.332334e-03  -1.236206e-02  0 
 3.367174e-03  -1.290448e-02  0 
 3.381476e-03  -1.340066e-02  0 
 3.398521e-03  -1.388688e-02  0 
 5.867706e-03  -1.216027e-02  0 
 5.973861e-03  -1.251640e-02  0 
 6.049292e-03  -1.294899e-02  0 
 6.106906e-03  -1.340704e-02  0 
 6.159309e-03  -1.391238e-02  0 
 3.855985e-03  -1.434757e-02  0 
 4.308577e-03  -1.432152e-02  0 
 4.760332e-03  -1.430612e-02  0 
 5.213466e-03  -1.431435e-02  0 
 5.680176e-03  -1.437987e-02  0 
 4.674712e-03  -1.264442e-02  0 
 5.491397e-03  -1.253463e-02  0 
 4.849646e-03  -1.223571e-02  0 
 5.389371e-03  -1.298062e-02  0 
 4.689428e-03  -1.355158e-02  0 
 3.847777e-03  -1.308341e-02  0 
 5.117223e-03  -1.260834e-02  0 
 4.424664e-03  -1.306331e-02  0 
 5.005870e-03  -1.312715e-02  0 
 5.729022e-03  -1.316381e-02  0 
 5.240176e-03  -1.222374e-02  0 
 4.116391e-03  -1.200276e-02  0 
 5.361812e-03  -1.395247e-02  0 
 5.608291e-03  -1.218606e-02  0 
 4.144690e-03  -1.352326e-02  0 
 5.451840e-03  -1.347159e-02  0 
 4.904251e-03  -1.392621e-02  0 
 5.729170e-03  -1.281274e-02  0 
 5.398177e-03  -1.193787e-02  0 
 5.739900e-03  -1.394304e-02  0 
 3.825664e-03  -1.394379e-02  0 
 5.081484e-03  -1.360280e-02  0 
 5.832003e-03  -1.356763e-02  0 
 4.354112e-03  -1.399383e-02  0 
 4.988272e-03  -1.190333e-02  0 
 4.515769e-03  -1.186306e-02  0 
 4.101699e-03  -1.163310e-02  0 
 5.639139e-03  -1.195234e-02  0 
 3.731169e-03  -1.173613e-02  0 
 4.157840e-03  -1.255108e-02  0 
 3.815650e-03  -1.227900e-02  0 
 3.718163e-03  -1.263769e-02  0 
 4.472439e-03  -1.225548e-02  0 
 3.720800e-03  -1.357240e-02  0 
VECTORS displacement_ITER13 FLOAT
 3.327343e-03  -1.097024e-02  0 
 5.687220e-03  -1.193587e-02  0 
 3.425779e-03  -1.439135e-02  0 
 6.179105e-03  -1.450030e-02  0 
 3.817488e-03  -1.125527e-02  0 
 4.302845e-03  -1.144170e-02  0 
 4.748511e-03  -1.155190e-02  0 
 5.164133e-03  -1.164823e-02  0 
 5.525366e-03  -1.177165e-02  0 
 3.304114e-03  -1.177561e-02  0 
 3.334576e-03  -1.236510e-02  0 
 3.369408e-03  -1.290628e-02  0 
 3.383904e-03  -1.340145e-02  0 
 3.401279e-03  -1.388653e-02  0 
 5.866180e-03  -1.216319e-02  0 
 5.972024e-03  -1.251906e-02  0 
 6.047294e-03  -1.295114e-02  0 
 6.104753e-03  -1.340849e-02  0 
 6.157248e-03  -1.391320e-02  0 
 3.857587e-03  -1.434628e-02  0 
 4.309152e-03  -1.432078e-02  0 
 4.760131e-03  -1.430591e-02  0 
 5.212498e-03  -1.431440e-02  0 
 5.678656e-03  -1.438009e-02  0 
 4.674377e-03  -1.264698e-02  0 
 5.490021e-03  -1.253731e-02  0 
 4.849064e-03  -1.223892e-02  0 
 5.388102e-03  -1.298266e-02  0 
 4.689125e-03  -1.355257e-02  0 
 3.849031e-03  -1.308509e-02  0 
 5.116271e-03  -1.261093e-02  0 
 4.424761e-03  -1.306511e-02  0 
 5.005071e-03  -1.312892e-02  0 
 5.727377e-03  -1.316563e-02  0 
 5.239099e-03  -1.222686e-02  0 
 4.116973e-03  -1.200651e-02  0 
 5.360606e-03  -1.395309e-02  0 
 5.606841e-03  -1.218914e-02  0 
 4.145365e-03  -1.352411e-02  0 
 5.450518e-03  -1.347290e-02  0 
 4.903702e-03  -1.392670e-02  0 
 5.727531e-03  -1.281506e-02  0 
 5.396973e-03  -1.194126e-02  0 
 5.738272e-03  -1.394374e-02  0 
 3.827130e-03  -1.394351e-02  0 
 5.080633e-03  -1.360386e-02  0 
 5.830236e-03  -1.356882e-02  0 
 4.354457e-03  -1.399383e-02  0 
 4.987555e-03  -1.190696e-02  0 
 4.515684e-03  -1.186696e-02  0 
 4.102339e-03  -1.163757e-02  0 
 5.637750e-03  -1.195559e-02  0 
 3.732536e-03  -1.174056e-02  0 
 4.158395e-03  -1.255381e-02  0 
 3.816824e-03  -1.228221e-02  0 
 3.719579e-03  -1.264017e-02  0 
 4.472424e-03  -1.225873e-02  0 
 3.722481e-03  -1.357302e-02  0 
VECTORS displacement_ITER14 FLOAT
 3.324986e-03  -1.097067e-02  0 
 5.686096e-03  -1.193281e-02  0 
 3.424104e-03  -1.438758e-02  0 
 6.176333e-03  -1.449905e-02  0 
 3.814841e-03  -1.125509e-02  0 
 4.300184e-03  -1.144109e-02  0 
 4.745726e-03  -1.155092e-02  0 
 5.161353e-03  -1.164675e-02  0 
 5.522941e-03  -1.176963e-02  0 
 3.301761e-03  -1.177516e-02  0 
 3.332299e-03  -1.236438e-02  0 
 3.367312e-03  -1.290513e-02  0 
 3.381879e-03  -1.339991e-02  0 
 3.399479e-03  -1.388409e-02  0 
 5.864236e-03  -1.216143e-02  0 
 5.969698e-03  -1.251770e-02  0 
 6.044743e-03  -1.294986e-02  0 
 6.102063e-03  -1.340720e-02  0 
 6.154457e-03  -1.391202e-02  0 
 3.855256e-03  -1.434355e-02  0 
 4.306559e-03  -1.431872e-02  0 
 4.757419e-03  -1.430428e-02  0 
 5.209742e-03  -1.431302e-02  0 
 5.675824e-03  -1.437887e-02  0 
 4.671361e-03  -1.264585e-02  0 
 5.487271e-03  -1.253611e-02  0 
 4.846079e-03  -1.223782e-02  0 
 5.385258e-03  -1.298150e-02  0 
 4.686192e-03  -1.355112e-02  0 
 3.846435e-03  -1.308383e-02  0 
 5.113319e-03  -1.260976e-02  0 
 4.421791e-03  -1.306381e-02  0 
 5.002101e-03  -1.312770e-02  0 
 5.724645e-03  -1.316445e-02  0 
 5.236212e-03  -1.222562e-02  0 
 4.114200e-03  -1.200588e-02  0 
 5.357775e-03  -1.395183e-02  0 
 5.604291e-03  -1.218778e-02  0 
 4.142533e-03  -1.352246e-02  0 
 5.447685e-03  -1.347171e-02  0 
 4.900866e-03  -1.392525e-02  0 
 5.724878e-03  -1.281388e-02  0 
 5.394242e-03  -1.193977e-02  0 
 5.735467e-03  -1.394252e-02  0 
 3.824580e-03  -1.394125e-02  0 
 5.077739e-03  -1.360257e-02  0 
 5.827451e-03  -1.356762e-02  0 
 4.351669e-03  -1.399200e-02  0 
 4.984635e-03  -1.190576e-02  0 
 4.512843e-03  -1.186613e-02  0 
 4.099607e-03  -1.163709e-02  0 
 5.635437e-03  -1.195387e-02  0 
 3.729876e-03  -1.174015e-02  0 