# vtk DataFile Version 3.1
this is an vtk file created by FEMAC
ASCII
DATASET UNSTRUCTURED_GRID
POINTS 60 FLOAT
4.000000 3.000000 0.000000
4.000000 4.000000 0.000000
5.000000 3.000000 0.000000
5.000000 4.000000 0.000000
4.000000 3.166667 0.000000
4.000000 3.333333 0.000000
4.000000 3.500000 0.000000
4.000000 3.666667 0.000000
4.000000 3.833333 0.000000
4.166667 3.000000 0.000000
4.333333 3.000000 0.000000
4.500000 3.000000 0.000000
4.666667 3.000000 0.000000
4.833333 3.000000 0.000000
4.166667 4.000000 0.000000
4.333333 4.000000 0.000000
4.500000 4.000000 0.000000
4.666667 4.000000 0.000000
4.833333 4.000000 0.000000
5.000000 3.166667 0.000000
5.000000 3.333333 0.000000
5.000000 3.500000 0.000000
5.000000 3.666667 0.000000
5.000000 3.833333 0.000000
4.549603 3.613228 0.000000
4.353651 3.398223 0.000000
4.693117 3.724591 0.000000
4.276546 3.704494 0.000000
4.865918 3.767554 0.000000
4.131628 3.759088 0.000000
4.519490 3.344099 0.000000
4.501245 3.767522 0.000000
4.702841 3.519576 0.000000
4.300471 3.534075 0.000000
4.590314 3.460008 0.000000
4.433983 3.513802 0.000000
4.838150 3.583568 0.000000
4.153052 3.581911 0.000000
4.763208 3.884224 0.000000
4.255897 3.865916 0.000000
4.842504 3.224137 0.000000
4.373387 3.262220 0.000000
4.658551 3.217359 0.000000
4.412518 3.661897 0.000000
4.510700 3.206588 0.000000
4.583696 3.110924 0.000000
4.419394 3.122989 0.000000
4.189552 3.378673 0.000000
4.854858 3.411659 0.000000
4.374342 3.780369 0.000000
4.591624 3.879726 0.000000
4.236566 3.159112 0.000000
4.892492 3.897022 0.000000
4.106594 3.891774 0.000000
4.749262 3.109067 0.000000
4.426074 3.882255 0.000000
4.694760 3.362806 0.000000
4.885020 3.099974 0.000000
4.101890 3.224224 0.000000
4.101025 3.110000 0.000000
CELLS 94 376 
3 29  8  7
3 23 28 22
3 31 24 26
3 32 26 24
3 24 34 32
3 25 35 33
3 35 25 30
3 36 22 28
3 26 36 28
3 7 37 29
3 37 27 29
3 17 38 18
3 20 40 19
3 43 24 31
3 43 27 33
3 35 34 24
3 30 34 35
3 43 35 24
3 33 35 43
3 36 21 22
3 26 32 36
3 6 37  7
3 33 27 37
3 39 15 14
3 39 29 27
3 30 25 41
3 38 26 28
3 44 42 30
3 41 44 30
3 45 11 12
3 45 42 44
3 11 46 10
3 41 46 44
3 25 47 41
3 31 49 43
3 50 17 16
3 17 50 38
3 18 52  3
3 52 23  3
3 8 53  1
3 53 14  1
3 51  9 10
3 27 49 39
3 27 43 49
3 46 51 10
3 46 41 51
3 26 50 31
3 26 38 50
3 45 46 11
3 45 44 46
3 51 41 47
3 52 18 38
3 28 52 38
3 52 28 23
3 14 53 39
3 53 29 39
3 29 53  8
3 47  6  5
3 33 47 25
3 6 47 37
3 33 37 47
3 40 20 48
3 21 48 20
3 48 21 36
3 36 32 48
3 13 54 12
3 42 54 40
3 55 16 15
3 55 49 31
3 56 42 40
3 48 56 40
3 57 13  2
3 57 19 40
3 19 57  2
3 54 45 12
3 42 45 54
3 39 55 15
3 39 49 55
3 57 54 13
3 40 54 57
3 55 50 16
3 31 50 55
3 56 34 30
3 30 42 56
3 34 56 32
3 48 32 56
3 4 58  5
3 47 58 51
3 58 47  5
3 59  4  0
3 9 59  0
3 4 59 58
3 59 51 58
3 51 59  9
CELL_TYPES 94
5 5 5 5 5 5 5 5 5 5 5 5 5 5 5 5 5 5 5 5 5 5 5 5 5 5 5 5 5 5 5 5 5 5 5 5 5 5 5 5 5 5 5 5 5 5 5 5 5 5 5 5 5 5 5 5 5 5 5 5 5 5 5 5 5 5 5 5 5 5 5 5 5 5 5 5 5 5 5 5 5 5 5 5 5 5 5 5 5 5 5 5 5 5 
POINT_DATA 60
VECTORS displacement_ITER1 FLOAT
 3.697314e-03  -1.395965e-02  0 
 7.167686e-03  -1.918872e-02  0 
 3.497957e-03  -2.239782e-02  0 
 9.312775e-03  -2.285714e-02  0 
 4.110185e-03  -1.551459e-02  0 
 4.404672e-03  -1.600676e-02  0 
 4.867043e-03  -1.581503e-02  0 
 6.280261e-03  -1.545319e-02  0 
 8.317433e-03  -1.590861e-02  0 
 4.006378e-03  -1.760341e-02  0 
 3.998806e-03  -1.841188e-02  0 
 3.926532e-03  -1.921101e-02  0 
 3.887962e-03  -2.016802e-02  0 
 3.762000e-03  -2.126300e-02  0 
 8.754392e-03  -1.911659e-02  0 
 8.698023e-03  -1.965461e-02  0 
 8.460690e-03  -2.061488e-02  0 
 8.263184e-03  -2.203569e-02  0 
 9.048400e-03  -2.204137e-02  0 
 4.550963e-03  -2.275784e-02  0 
 5.532300e-03  -2.245488e-02  0 
 6.153586e-03  -2.260649e-02  0 
 7.170118e-03  -2.263478e-02  0 
 8.402817e-03  -2.281792e-02  0 
 6.829227e-03  -2.058726e-02  0 
 5.218829e-03  -1.871852e-02  0 
 7.519527e-03  -2.129518e-02  0 
 7.024021e-03  -1.912034e-02  0 
 7.810168e-03  -2.202552e-02  0 
 7.469795e-03  -1.769909e-02  0 
 5.221900e-03  -1.977281e-02  0 
 7.532660e-03  -2.070985e-02  0 
 6.369367e-03  -2.121946e-02  0 
 5.802653e-03  -1.870945e-02  0 
 5.936498e-03  -2.048899e-02  0 
 6.006025e-03  -1.962493e-02  0 
 6.711356e-03  -2.187558e-02  0 
 5.709824e-03  -1.753387e-02  0 
 8.373893e-03  -2.167823e-02  0 
 8.357533e-03  -1.916529e-02  0 
 4.962126e-03  -2.156709e-02  0 
 4.675178e-03  -1.854537e-02  0 
 4.742662e-03  -2.042363e-02  0 
 6.907779e-03  -2.000886e-02  0 
 4.558652e-03  -1.946194e-02  0 
 4.242638e-03  -1.978732e-02  0 
 4.229314e-03  -1.882161e-02  0 
 4.767003e-03  -1.735097e-02  0 
 5.814165e-03  -2.192062e-02  0 
 7.628411e-03  -1.999715e-02  0 
 8.006401e-03  -2.128309e-02  0 
 4.369860e-03  -1.757870e-02  0 
 8.612941e-03  -2.228698e-02  0 
 8.556828e-03  -1.764866e-02  0 
 4.274376e-03  -2.078151e-02  0 
 8.150226e-03  -2.029288e-02  0 
 5.500916e-03  -2.096249e-02  0 
 4.164139e-03  -2.171229e-02  0 
 4.403866e-03  -1.652356e-02  0 
 4.461868e-03  -1.635879e-02  0 
VECTORS displacement_ITER2 FLOAT
 2.870145e-03  -1.132276e-02  0 
 6.232642e-03  -1.378356e-02  0 
 2.583181e-03  -1.681503e-02  0 
 7.043095e-03  -1.717067e-02  0 
 2.002927e-03  -1.202411e-02  0 
 3.214473e-03  -1.265770e-02  0 
 3.892219e-03  -1.263513e-02  0 
 3.728715e-03  -1.310231e-02  0 
 4.615956e-03  -1.261428e-02  0 
 2.970140e-03  -1.246272e-02  0 
 3.092806e-03  -1.327061e-02  0 
 2.907618e-03  -1.446713e-02  0 
 2.821987e-03  -1.575292e-02  0 
 2.871915e-03  -1.627354e-02  0 
 5.489533e-03  -1.481342e-02  0 
 5.443501e-03  -1.549091e-02  0 
 5.635109e-03  -1.574155e-02  0 
 5.993011e-03  -1.605889e-02  0 
 6.503479e-03  -1.634764e-02  0 
 3.148259e-03  -1.701213e-02  0 
 3.929499e-03  -1.700758e-02  0 
 4.542673e-03  -1.723600e-02  0 
 5.050183e-03  -1.718000e-02  0 
 5.746510e-03  -1.713504e-02  0 
 4.754500e-03  -1.549248e-02  0 
 3.782462e-03  -1.436920e-02  0 
 5.281280e-03  -1.601003e-02  0 
 4.649523e-03  -1.453701e-02  0 
 5.454419e-03  -1.656966e-02  0 
 4.348863e-03  -1.409138e-02  0 
 3.833434e-03  -1.499853e-02  0 
 5.263542e-03  -1.551650e-02  0 
 4.507831e-03  -1.598050e-02  0 
 4.107575e-03  -1.433555e-02  0 
 4.222820e-03  -1.544952e-02  0 
 4.237355e-03  -1.489855e-02  0 
 4.797422e-03  -1.658146e-02  0 
 4.098749e-03  -1.354035e-02  0 
 5.901960e-03  -1.611377e-02  0 
 5.235286e-03  -1.511621e-02  0 
 3.471560e-03  -1.632736e-02  0 
 3.508821e-03  -1.419994e-02  0 
 3.533041e-03  -1.552894e-02  0 
 4.749046e-03  -1.507083e-02  0 
 3.512531e-03  -1.477076e-02  0 
 3.257840e-03  -1.512895e-02  0 
 3.254584e-03  -1.404613e-02  0 
 3.502910e-03  -1.368649e-02  0 
 4.161994e-03  -1.653938e-02  0 
 5.154258e-03  -1.520250e-02  0 
 5.658838e-03  -1.578227e-02  0 
 3.023635e-03  -1.323037e-02  0 
 6.088088e-03  -1.652940e-02  0 
 5.333834e-03  -1.437593e-02  0 
 3.099438e-03  -1.601153e-02  0 
 5.451014e-03  -1.548690e-02  0 
 3.950451e-03  -1.579148e-02  0 
 2.985714e-03  -1.645449e-02  0 
 2.805037e-03  -1.295430e-02  0 
 2.677767e-03  -1.225207e-02  0 
VECTORS displacement_ITER3 FLOAT
 1.269438e-03  -1.068637e-02  0 
 4.761167e-03  -1.268612e-02  0 
 1.556427e-03  -1.531998e-02  0 
 4.731559e-03  -1.510874e-02  0 
 2.029082e-03  -1.111433e-02  0 
 2.647154e-03  -1.120450e-02  0 
 3.200159e-03  -1.114138e-02  0 
 3.887175e-03  -1.104794e-02  0 
 4.352667e-03  -1.137368e-02  0 
 1.910370e-03  -1.196169e-02  0 
 2.027995e-03  -1.243457e-02  0 
 1.906412e-03  -1.308630e-02  0 
 1.889138e-03  -1.383276e-02  0 
 1.884905e-03  -1.446979e-02  0 
 4.686405e-03  -1.246188e-02  0 
 5.185573e-03  -1.291942e-02  0 
 5.321573e-03  -1.401410e-02  0 
 5.172203e-03  -1.460310e-02  0 
 4.800356e-03  -1.515145e-02  0 
 2.500817e-03  -1.535847e-02  0 
 2.939659e-03  -1.554409e-02  0 
 3.640635e-03  -1.564387e-02  0 
 4.398386e-03  -1.578102e-02  0 
 4.782309e-03  -1.551612e-02  0 
 3.831861e-03  -1.408562e-02  0 
 2.952589e-03  -1.304701e-02  0 
 4.330321e-03  -1.477130e-02  0 
 4.102580e-03  -1.283610e-02  0 
 4.631711e-03  -1.534505e-02  0 
 4.329247e-03  -1.204884e-02  0 
 2.868901e-03  -1.368635e-02  0 
 4.363099e-03  -1.395813e-02  0 
 3.599101e-03  -1.457773e-02  0 
 3.412191e-03  -1.290290e-02  0 
 3.320577e-03  -1.409792e-02  0 
 3.408823e-03  -1.351520e-02  0 
 3.928698e-03  -1.511131e-02  0 
 3.553278e-03  -1.210511e-02  0 
 4.814685e-03  -1.513280e-02  0 
 4.780158e-03  -1.263054e-02  0 
 2.604997e-03  -1.483098e-02  0 
 2.497246e-03  -1.299232e-02  0 
 2.540979e-03  -1.406258e-02  0 
 3.953673e-03  -1.352021e-02  0 
 2.451291e-03  -1.343655e-02  0 
 2.207272e-03  -1.360741e-02  0 
 2.193756e-03  -1.291126e-02  0 
 2.790809e-03  -1.225713e-02  0 
 3.246721e-03  -1.503794e-02  0 
 4.403132e-03  -1.333303e-02  0 
 4.813121e-03  -1.443836e-02  0 
 2.131452e-03  -1.235348e-02  0 
 4.828941e-03  -1.530747e-02  0 
 4.790226e-03  -1.230752e-02  0 
 2.207822e-03  -1.429328e-02  0 
 4.771063e-03  -1.353846e-02  0 
 3.032635e-03  -1.439987e-02  0 
 2.195185e-03  -1.474626e-02  0 
 2.280167e-03  -1.177967e-02  0 
 1.973127e-03  -1.177420e-02  0 
VECTORS displacement_ITER4 FLOAT
 1.413218e-03  -1.079299e-02  0 
 4.370427e-03  -1.129287e-02  0 
 1.385821e-03  -1.466065e-02  0 
 4.309535e-03  -1.518635e-02  0 
 1.552120e-03  -1.076261e-02  0 
 1.817372e-03  -1.066558e-02  0 
 2.236197e-03  -1.073416e-02  0 
 2.743209e-03  -1.082833e-02  0 
 3.111402e-03  -1.108274e-02  0 
 1.424611e-03  -1.146922e-02  0 
 1.368640e-03  -1.212521e-02  0 
 1.371475e-03  -1.287367e-02  0 
 1.393928e-03  -1.356836e-02  0 
 1.452237e-03  -1.425899e-02  0 
 4.029812e-03  -1.260468e-02  0 
 3.942830e-03  -1.290316e-02  0 
 3.900589e-03  -1.330797e-02  0 
 3.931771e-03  -1.349572e-02  0 
 4.042070e-03  -1.416986e-02  0 
 1.687542e-03  -1.470454e-02  0 
 2.221405e-03  -1.480883e-02  0 
 2.611020e-03  -1.470996e-02  0 
 2.952388e-03  -1.467314e-02  0 
 3.413140e-03  -1.488538e-02  0 
 2.923338e-03  -1.359844e-02  0 
 2.205704e-03  -1.262061e-02  0 
 3.194040e-03  -1.399866e-02  0 
 3.096169e-03  -1.253656e-02  0 
 3.192645e-03  -1.440549e-02  0 
 3.132514e-03  -1.182833e-02  0 
 2.165600e-03  -1.329193e-02  0 
 3.405604e-03  -1.340179e-02  0 
 2.679142e-03  -1.405491e-02  0 
 2.560966e-03  -1.248336e-02  0 
 2.489995e-03  -1.364305e-02  0 
 2.575683e-03  -1.308501e-02  0 
 2.817050e-03  -1.441538e-02  0 
 2.597508e-03  -1.174143e-02  0 
 3.586408e-03  -1.396992e-02  0 
 3.682589e-03  -1.270984e-02  0 
 1.901980e-03  -1.430726e-02  0 
 1.880122e-03  -1.257153e-02  0 
 1.901789e-03  -1.372368e-02  0 
 3.054097e-03  -1.309318e-02  0 
 1.823504e-03  -1.311616e-02  0 
 1.631154e-03  -1.333254e-02  0 
 1.603688e-03  -1.262984e-02  0 
 2.028557e-03  -1.178679e-02  0 
 2.435406e-03  -1.443979e-02  0 
 3.437133e-03  -1.303683e-02  0 
 3.683518e-03  -1.353637e-02  0 
 1.581867e-03  -1.182708e-02  0 
 3.632019e-03  -1.444941e-02  0 
 3.596001e-03  -1.210978e-02  0 
 1.666820e-03  -1.399579e-02  0 
 3.697288e-03  -1.318445e-02  0 
 2.267998e-03  -1.392837e-02  0 
 1.605648e-03  -1.441454e-02  0 
 1.636672e-03  -1.122812e-02  0 
 1.505157e-03  -1.122412e-02  0 
VECTORS displacement_ITER5 FLOAT
 1.079406e-03  -1.083824e-02  0 
 3.518136e-03  -1.133911e-02  0 
 1.047135e-03  -1.462504e-02  0 
 3.458973e-03  -1.428638e-02  0 
 1.385533e-03  -1.052211e-02  0 
 1.872984e-03  -1.037705e-02  0 
 2.423563e-03  -1.038703e-02  0 
 2.888366e-03  -1.042373e-02  0 
 3.181049e-03  -1.067804e-02  0 
 9.897753e-04  -1.143588e-02  0 
 1.063018e-03  -1.215621e-02  0 
 1.191459e-03  -1.275804e-02  0 
 1.232078e-03  -1.326028e-02  0 
 1.160566e-03  -1.390265e-02  0 
 3.634245e-03  -1.171101e-02  0 
 3.901321e-03  -1.243764e-02  0 
 4.007189e-03  -1.314476e-02  0 
 3.942087e-03  -1.378780e-02  0 
 3.806277e-03  -1.425610e-02  0 
 1.666120e-03  -1.461530e-02  0 
 2.100180e-03  -1.470299e-02  0 
 2.642305e-03  -1.478878e-02  0 
 3.101695e-03  -1.485224e-02  0 
 3.650200e-03  -1.475518e-02  0 
 2.823830e-03  -1.336264e-02  0 
 2.114335e-03  -1.244354e-02  0 
 3.213050e-03  -1.394702e-02  0 
 3.064547e-03  -1.208285e-02  0 
 3.400150e-03  -1.446263e-02  0 
 3.183897e-03  -1.131685e-02  0 
 1.986405e-03  -1.314641e-02  0 
 3.283223e-03  -1.319069e-02  0 
 2.576473e-03  -1.391058e-02  0 
 2.527531e-03  -1.220656e-02  0 
 2.363873e-03  -1.347877e-02  0 
 2.488770e-03  -1.284346e-02  0 
 2.822151e-03  -1.437902e-02  0 
 2.678265e-03  -1.137067e-02  0 
 3.648073e-03  -1.419237e-02  0 
 3.528063e-03  -1.200184e-02  0 
 1.796334e-03  -1.415542e-02  0 
 1.697136e-03  -1.250038e-02  0 
 1.695654e-03  -1.352959e-02  0 
 2.941526e-03  -1.277270e-02  0 
 1.600980e-03  -1.300088e-02  0 
 1.407682e-03  -1.314937e-02  0 
 1.361175e-03  -1.260402e-02  0 
 2.021928e-03  -1.160474e-02  0 
 2.311903e-03  -1.432129e-02  0 
 3.307132e-03  -1.258001e-02  0 
 3.630641e-03  -1.357659e-02  0 
 1.363862e-03  -1.182331e-02  0 
 3.681110e-03  -1.454296e-02  0 
 3.494008e-03  -1.141682e-02  0 
 1.472292e-03  -1.368539e-02  0 
 3.627197e-03  -1.282707e-02  0 
 2.121257e-03  -1.379363e-02  0 
 1.463788e-03  -1.417068e-02  0 
 1.526149e-03  -1.108840e-02  0 
 1.211399e-03  -1.112489e-02  0 
VECTORS displacement_ITER6 FLOAT
 9.846403e-04  -1.068161e-02  0 
 3.502677e-03  -1.086880e-02  0 
 1.007132e-03  -1.442644e-02  0 
 3.697483e-03  -1.469753e-02  0 
 1.363129e-03  -1.066597e-02  0 
 1.698432e-03  -1.057071e-02  0 
 2.040691e-03  -1.061477e-02  0 
 2.312396e-03  -1.072820e-02  0 
 2.868625e-03  -1.072901e-02  0 
 9.833606e-04  -1.149424e-02  0 
 1.062998e-03  -1.208969e-02  0 
 1.126910e-03  -1.257937e-02  0 
 1.104987e-03  -1.314898e-02  0 
 1.059208e-03  -1.377013e-02  0 
 3.463657e-03  -1.201778e-02  0 
 3.285050e-03  -1.265514e-02  0 
 3.274941e-03  -1.292553e-02  0 
 3.373027e-03  -1.325649e-02  0 
 3.539352e-03  -1.368297e-02  0 
 1.475630e-03  -1.438812e-02  0 
 1.900057e-03  -1.433516e-02  0 
 2.267656e-03  -1.435191e-02  0 
 2.547262e-03  -1.433838e-02  0 
 2.978227e-03  -1.443913e-02  0 
 2.515168e-03  -1.323286e-02  0 
 1.899634e-03  -1.238170e-02  0 
 2.763392e-03  -1.360351e-02  0 
 2.665761e-03  -1.221762e-02  0 
 2.780948e-03  -1.402438e-02  0 
 2.671548e-03  -1.158961e-02  0 
 1.808831e-03  -1.302144e-02  0 
 2.920931e-03  -1.304589e-02  0 
 2.277577e-03  -1.369703e-02  0 
 2.220737e-03  -1.219978e-02  0 
 2.117309e-03  -1.333186e-02  0 
 2.217214e-03  -1.277053e-02  0 
 2.415060e-03  -1.405194e-02  0 
 2.270214e-03  -1.149076e-02  0 
 3.128222e-03  -1.358974e-02  0 
 3.080226e-03  -1.236192e-02  0 
 1.659120e-03  -1.393546e-02  0 
 1.553434e-03  -1.240638e-02  0 
 1.581723e-03  -1.336074e-02  0 
 2.625519e-03  -1.274747e-02  0 
 1.486735e-03  -1.285979e-02  0 
 1.327605e-03  -1.298367e-02  0 
 1.282979e-03  -1.247522e-02  0 
 1.808681e-03  -1.161353e-02  0 
 2.065222e-03  -1.404742e-02  0 
 2.930978e-03  -1.267033e-02  0 
 3.145839e-03  -1.318322e-02  0 
 1.304555e-03  -1.181560e-02  0 
 3.142388e-03  -1.404173e-02  0 
 3.110498e-03  -1.154821e-02  0 
 1.365383e-03  -1.354231e-02  0 
 3.153721e-03  -1.284114e-02  0 
 1.926958e-03  -1.360308e-02  0 
 1.338072e-03  -1.402070e-02  0 
 1.447181e-03  -1.116060e-02  0 
 1.219454e-03  -1.118806e-02  0 
VECTORS displacement_ITER7 FLOAT
 9.804867e-04  -1.081541e-02  0 
 3.199440e-03  -1.105581e-02  0 
 9.522324e-04  -1.428689e-02  0 
 3.356835e-03  -1.419936e-02  0 
 1.229058e-03  -1.051373e-02  0 
 1.623217e-03  -1.042892e-02  0 
 2.046637e-03  -1.039019e-02  0 
 2.514344e-03  -1.036392e-02  0 
 2.977391e-03  -1.054119e-02  0 
 8.732203e-04  -1.139663e-02  0 
 8.830572e-04  -1.199096e-02  0 
 8.713335e-04  -1.261991e-02  0 
 9.254982e-04  -1.321427e-02  0 
 9.579770e-04  -1.376686e-02  0 
 3.327825e-03  -1.157469e-02  0 
 3.450106e-03  -1.225295e-02  0 
 3.536465e-03  -1.289912e-02  0 
 3.511720e-03  -1.355477e-02  0 
 3.422820e-03  -1.396810e-02  0 
 1.381776e-03  -1.447272e-02  0 
 1.796692e-03  -1.451341e-02  0 
 2.240132e-03  -1.455414e-02  0 
 2.740038e-03  -1.456851e-02  0 
 3.151317e-03  -1.446940e-02  0 
 2.494608e-03  -1.319173e-02  0 
 1.830975e-03  -1.230186e-02  0 
 2.826354e-03  -1.370327e-02  0 
 2.717514e-03  -1.200824e-02  0 
 2.985098e-03  -1.420285e-02  0 
 2.852524e-03  -1.126276e-02  0 
 1.725359e-03  -1.298548e-02  0 
 2.907306e-03  -1.300665e-02  0 
 2.262918e-03  -1.371234e-02  0 
 2.199902e-03  -1.209423e-02  0 
 2.071257e-03  -1.330442e-02  0 
 2.180456e-03  -1.270003e-02  0 
 2.464689e-03  -1.412780e-02  0 
 2.307486e-03  -1.131456e-02  0 
 3.243954e-03  -1.390644e-02  0 
 3.169131e-03  -1.191162e-02  0 
 1.511598e-03  -1.402362e-02  0 
 1.449614e-03  -1.233516e-02  0 
 1.439195e-03  -1.340496e-02  0 
 2.606508e-03  -1.264447e-02  0 
 1.364493e-03  -1.284435e-02  0 
 1.150942e-03  -1.304260e-02  0 
 1.135480e-03  -1.241360e-02  0 
 1.731482e-03  -1.149686e-02  0 
 1.989608e-03  -1.414959e-02  0 
 2.943181e-03  -1.245685e-02  0 
 3.210100e-03  -1.333201e-02  0 
 1.162141e-03  -1.170056e-02  0 
 3.267860e-03  -1.419234e-02  0 
 3.187111e-03  -1.124329e-02  0 
 1.191942e-03  -1.361201e-02  0 
 3.220088e-03  -1.264369e-02  0 
 1.832600e-03  -1.363419e-02  0 
 1.193879e-03  -1.404032e-02  0 
 1.330252e-03  -1.104019e-02  0 
 1.066567e-03  -1.108502e-02  0 
VECTORS displacement_ITER8 FLOAT
 8.790488e-04  -1.065827e-02  0 
 3.359458e-03  -1.081166e-02  0 
 9.509175e-04  -1.432161e-02  0 
 3.489999e-03  -1.437138e-02  0 
 1.225527e-03  -1.057510e-02  0 
 1.657681e-03  -1.055302e-02  0 
 2.045559e-03  -1.053825e-02  0 
 2.402648e-03  -1.056653e-02  0 
 2.756924e-03  -1.068640e-02  0 
 9.439950e-04  -1.141826e-02  0 
 9.934449e-04  -1.199116e-02  0 
 9.995494e-04  -1.252844e-02  0 
 1.013439e-03  -1.306328e-02  0 
 1.010606e-03  -1.361557e-02  0 
 3.245554e-03  -1.185595e-02  0 
 3.236916e-03  -1.236982e-02  0 
 3.285756e-03  -1.286155e-02  0 
 3.324343e-03  -1.334828e-02  0 
 3.353862e-03  -1.384773e-02  0 
 1.412297e-03  -1.430168e-02  0 
 1.814273e-03  -1.430807e-02  0 
 2.225244e-03  -1.431583e-02  0 
 2.625459e-03  -1.433871e-02  0 
 2.989479e-03  -1.438254e-02  0 
 2.436783e-03  -1.315005e-02  0 
 1.835235e-03  -1.231606e-02  0 
 2.712477e-03  -1.358726e-02  0 
 2.618961e-03  -1.207650e-02  0 
 2.815632e-03  -1.403955e-02  0 
 2.683518e-03  -1.140102e-02  0 
 1.742096e-03  -1.293694e-02  0 
 2.821736e-03  -1.296707e-02  0 
 2.228230e-03  -1.361154e-02  0 
 2.169128e-03  -1.212891e-02  0 
 2.057298e-03  -1.324272e-02  0 
 2.152303e-03  -1.269273e-02  0 
 2.398809e-03  -1.397894e-02  0 
 2.262283e-03  -1.140429e-02  0 
 3.082678e-03  -1.370930e-02  0 
 3.028236e-03  -1.210337e-02  0 
 1.567167e-03  -1.386681e-02  0 
 1.482579e-03  -1.233686e-02  0 
 1.494885e-03  -1.328746e-02  0 
 2.543008e-03  -1.264976e-02  0 
 1.412933e-03  -1.277976e-02  0 
 1.229249e-03  -1.292420e-02  0 
 1.204389e-03  -1.238325e-02  0 
 1.749001e-03  -1.157137e-02  0 
 2.000352e-03  -1.397954e-02  0 
 2.849691e-03  -1.251665e-02  0 
 3.070867e-03  -1.320107e-02  0 
 1.215109e-03  -1.174752e-02  0 
 3.134302e-03  -1.405005e-02  0 
 2.994937e-03  -1.144980e-02  0 
 1.272787e-03  -1.346108e-02  0 
 3.072253e-03  -1.267871e-02  0 
 1.855430e-03  -1.352198e-02  0 
 1.274730e-03  -1.390785e-02  0 
 1.363862e-03  -1.113093e-02  0 
 1.105687e-03  -1.114214e-02  0 
VECTORS displacement_ITER9 FLOAT
 8.252283e-04  -1.072538e-02  0 
 3.337646e-03  -1.098217e-02  0 
 9.492260e-04  -1.422773e-02  0 
 3.400235e-03  -1.431845e-02  0 
 1.190668e-03  -1.051047e-02  0 
 1.567615e-03  -1.043772e-02  0 
 1.950790e-03  -1.042270e-02  0 
 2.409713e-03  -1.047024e-02  0 
 2.876632e-03  -1.065703e-02  0 
 8.971142e-04  -1.142084e-02  0 
 8.901350e-04  -1.196551e-02  0 
 9.032550e-04  -1.252120e-02  0 
 9.314724e-04  -1.307656e-02  0 
 9.581377e-04  -1.365014e-02  0 
 3.269899e-03  -1.172614e-02  0 
 3.325128e-03  -1.229833e-02  0 
 3.340533e-03  -1.290388e-02  0 
 3.336314e-03  -1.340119e-02  0 
 3.371280e-03  -1.389500e-02  0 
 1.341445e-03  -1.435324e-02  0 
 1.761966e-03  -1.441622e-02  0 
 2.185253e-03  -1.442376e-02  0 
 2.609519e-03  -1.441631e-02  0 
 3.025736e-03  -1.440578e-02  0 
 2.433024e-03  -1.317486e-02  0 
 1.777354e-03  -1.229674e-02  0 
 2.729023e-03  -1.363234e-02  0 
 2.640700e-03  -1.207277e-02  0 
 2.837692e-03  -1.408547e-02  0 
 2.756015e-03  -1.137163e-02  0 
 1.680288e-03  -1.294856e-02  0 
 2.832088e-03  -1.299336e-02  0 
 2.206108e-03  -1.365870e-02  0 
 2.140277e-03  -1.211448e-02  0 
 2.020106e-03  -1.326844e-02  0 
 2.124727e-03  -1.269766e-02  0 
 2.385760e-03  -1.404426e-02  0 
 2.231665e-03  -1.136936e-02  0 
 3.103343e-03  -1.375899e-02  0 
 3.085597e-03  -1.202583e-02  0 
 1.486392e-03  -1.391821e-02  0 
 1.399308e-03  -1.231270e-02  0 
 1.416621e-03  -1.331856e-02  0 
 2.546360e-03  -1.266263e-02  0 
 1.328524e-03  -1.278305e-02  0 
 1.140655e-03  -1.293660e-02  0 
 1.109553e-03  -1.236863e-02  0 
 1.670552e-03  -1.150069e-02  0 
 1.955322e-03  -1.405705e-02  0 
 2.864952e-03  -1.251439e-02  0 
 3.097006e-03  -1.325614e-02  0 
 1.120134e-03  -1.169873e-02  0 
 3.152355e-03  -1.411043e-02  0 
 3.102107e-03  -1.139509e-02  0 
 1.191615e-03  -1.350071e-02  0 
 3.102723e-03  -1.268531e-02  0 
 1.796869e-03  -1.356189e-02  0 
 1.191727e-03  -1.394187e-02  0 
 1.285395e-03  -1.105418e-02  0 
 1.033620e-03  -1.113157e-02  0 
VECTORS displacement_ITER10 FLOAT
 8.280673e-04  -1.070358e-02  0 
 3.343379e-03  -1.091296e-02  0 
 9.480949e-04  -1.424510e-02  0 
 3.382240e-03  -1.439243e-02  0 
 1.174451e-03  -1.049306e-02  0 
 1.605633e-03  -1.041273e-02  0 
 2.011881e-03  -1.041488e-02  0 
 2.392126e-03  -1.049168e-02  0 
 2.824734e-03  -1.061277e-02  0 
 9.202333e-04  -1.139332e-02  0 
 9.352757e-04  -1.197298e-02  0 
 9.657041e-04  -1.251778e-02  0 
 9.616544e-04  -1.305686e-02  0 
 9.598018e-04  -1.361444e-02  0 
 3.271404e-03  -1.174546e-02  0 
 3.300619e-03  -1.235096e-02  0 
 3.316437e-03  -1.291021e-02  0 
 3.331741e-03  -1.336545e-02  0 
 3.375161e-03  -1.386688e-02  0 
 1.374632e-03  -1.434403e-02  0 
 1.787482e-03  -1.438292e-02  0 
 2.206504e-03  -1.439574e-02  0 
 2.604963e-03  -1.439220e-02  0 
 3.011179e-03  -1.438824e-02  0 
 2.435261e-03  -1.316479e-02  0 
 1.797202e-03  -1.229283e-02  0 
 2.725879e-03  -1.362336e-02  0 
 2.630837e-03  -1.205166e-02  0 
 2.823881e-03  -1.407403e-02  0 
 2.710914e-03  -1.136224e-02  0 
 1.696435e-03  -1.293805e-02  0 
 2.835719e-03  -1.298416e-02  0 
 2.213800e-03  -1.364616e-02  0 
 2.153848e-03  -1.209999e-02  0 
 2.031455e-03  -1.325827e-02  0 
 2.134154e-03  -1.268592e-02  0 
 2.391775e-03  -1.403221e-02  0 
 2.253851e-03  -1.134506e-02  0 
 3.086902e-03  -1.373663e-02  0 
 3.057223e-03  -1.205278e-02  0 
 1.520808e-03  -1.389516e-02  0 
 1.423968e-03  -1.231829e-02  0 
 1.441954e-03  -1.329148e-02  0 
 2.546320e-03  -1.264629e-02  0 
 1.353702e-03  -1.277267e-02  0 
 1.173135e-03  -1.291255e-02  0 
 1.142210e-03  -1.237274e-02  0 
 1.704386e-03  -1.150851e-02  0 
 1.975497e-03  -1.403286e-02  0 
 2.860802e-03  -1.251087e-02  0 
 3.094008e-03  -1.323637e-02  0 
 1.141652e-03  -1.170477e-02  0 
 3.121762e-03  -1.411324e-02  0 
 3.067950e-03  -1.138622e-02  0 
 1.215543e-03  -1.346513e-02  0 
 3.095369e-03  -1.269796e-02  0 
 1.818333e-03  -1.354457e-02  0 
 1.217900e-03  -1.392089e-02  0 
 1.297272e-03  -1.105695e-02  0 
 1.035339e-03  -1.111743e-02  0 
VECTORS displacement_ITER11 FLOAT
 8.112473e-04  -1.070846e-02  0 
 3.341839e-03  -1.093924e-02  0 
 9.758015e-04  -1.423319e-02  0 
 3.379355e-03  -1.441113e-02  0 
 1.182945e-03  -1.047345e-02  0 
 1.597590e-03  -1.041467e-02  0 
 2.011469e-03  -1.042066e-02  0 
 2.408485e-03  -1.048105e-02  0 
 2.849006e-03  -1.062278e-02  0 
 9.203118e-04  -1.136890e-02  0 
 9.554614e-04  -1.194159e-02  0 
 9.818135e-04  -1.249258e-02  0 
 9.861515e-04  -1.304724e-02  0 
 9.851390e-04  -1.361445e-02  0 
 3.308183e-03  -1.177226e-02  0 
 3.321881e-03  -1.234999e-02  0 
 3.354016e-03  -1.288826e-02  0 
 3.374990e-03  -1.339066e-02  0 
 3.392604e-03  -1.389894e-02  0 
 1.390324e-03  -1.433897e-02  0 
 1.814211e-03  -1.436215e-02  0 
 2.220091e-03  -1.438845e-02  0 
 2.643970e-03  -1.440041e-02  0 
 3.052723e-03  -1.440052e-02  0 
 2.450730e-03  -1.317014e-02  0 
 1.806850e-03  -1.229179e-02  0 
 2.743086e-03  -1.363123e-02  0 
 2.651146e-03  -1.205798e-02  0 
 2.857548e-03  -1.409198e-02  0 
 2.735943e-03  -1.136380e-02  0 
 1.711771e-03  -1.293448e-02  0 
 2.854595e-03  -1.298874e-02  0 
 2.232186e-03  -1.364451e-02  0 
 2.163794e-03  -1.210343e-02  0 
 2.047907e-03  -1.325732e-02  0 
 2.146760e-03  -1.268948e-02  0 
 2.411736e-03  -1.402705e-02  0 
 2.260905e-03  -1.134871e-02  0 
 3.112289e-03  -1.376995e-02  0 
 3.088104e-03  -1.206243e-02  0 
 1.545597e-03  -1.388362e-02  0 
 1.433720e-03  -1.231123e-02  0 
 1.464810e-03  -1.328316e-02  0 
 2.563583e-03  -1.265290e-02  0 
 1.372959e-03  -1.276104e-02  0 
 1.195977e-03  -1.290019e-02  0 
 1.159277e-03  -1.235099e-02  0 
 1.708219e-03  -1.150604e-02  0 
 1.993359e-03  -1.402747e-02  0 
 2.886406e-03  -1.251313e-02  0 
 3.113581e-03  -1.324091e-02  0 
 1.146524e-03  -1.169618e-02  0 
 3.146873e-03  -1.414518e-02  0 
 3.090880e-03  -1.139122e-02  0 
 1.240159e-03  -1.345743e-02  0 
 3.124163e-03  -1.268808e-02  0 
 1.836327e-03  -1.354005e-02  0 
 1.237892e-03  -1.391723e-02  0 
 1.302770e-03  -1.104568e-02  0 
 1.030583e-03  -1.111048e-02  0 
VECTORS displacement_ITER12 FLOAT
 8.188759e-04  -1.068122e-02  0 
 3.341400e-03  -1.095106e-02  0 
 9.874583e-04  -1.423396e-02  0 
 3.415516e-03  -1.442923e-02  0 
 1.184148e-03  -1.048658e-02  0 
 1.573904e-03  -1.043148e-02  0 
 1.979116e-03  -1.043059e-02  0 
 2.398332e-03  -1.047896e-02  0 
 2.852284e-03  -1.063789e-02  0 
 9.251364e-04  -1.136497e-02  0 
 9.557632e-04  -1.193607e-02  0 
 9.661530e-04  -1.249944e-02  0 
 9.766397e-04  -1.306149e-02  0 
 9.848231e-04  -1.362975e-02  0 
 3.310771e-03  -1.177575e-02  0 
 3.330634e-03  -1.236287e-02  0 
 3.368217e-03  -1.289246e-02  0 
 3.382349e-03  -1.340092e-02  0 
 3.401194e-03  -1.388701e-02  0 
 1.382900e-03  -1.435480e-02  0 
 1.811592e-03  -1.437716e-02  0 
 2.216521e-03  -1.438959e-02  0 
 2.633629e-03  -1.439777e-02  0 
 3.041435e-03  -1.440125e-02  0 
 2.448281e-03  -1.317846e-02  0 
 1.797506e-03  -1.229272e-02  0 
 2.741391e-03  -1.363634e-02  0 
 2.646286e-03  -1.207113e-02  0 
 2.851101e-03  -1.409209e-02  0 
 2.736982e-03  -1.137337e-02  0 
 1.709774e-03  -1.293558e-02  0 
 2.852761e-03  -1.299833e-02  0 
 2.230569e-03  -1.365197e-02  0 
 2.152078e-03  -1.211126e-02  0 
 2.045424e-03  -1.326240e-02  0 
 2.140157e-03  -1.269583e-02  0 
 2.407958e-03  -1.403313e-02  0 
 2.242213e-03  -1.136082e-02  0 
 3.116998e-03  -1.376789e-02  0 
 3.089406e-03  -1.206886e-02  0 
 1.540255e-03  -1.389664e-02  0 
 1.429985e-03  -1.230414e-02  0 
 1.461482e-03  -1.329220e-02  0 
 2.559365e-03  -1.266334e-02  0 
 1.370499e-03  -1.276134e-02  0 
 1.189539e-03  -1.290970e-02  0 
 1.157072e-03  -1.234508e-02  0 
 1.689912e-03  -1.150639e-02  0 
 1.993395e-03  -1.403661e-02  0 
 2.884340e-03  -1.252210e-02  0 
 3.116843e-03  -1.325019e-02  0 
 1.147964e-03  -1.168764e-02  0 
 3.147670e-03  -1.413421e-02  0 
 3.092943e-03  -1.139884e-02  0 
 1.234231e-03  -1.347348e-02  0 
 3.129484e-03  -1.269577e-02  0 
 1.834929e-03  -1.354678e-02  0 
 1.232673e-03  -1.393374e-02  0 
 1.296646e-03  -1.104524e-02  0 
 1.039992e-03  -1.110475e-02  0 
VECTORS displacement_ITER13 FLOAT
 8.222355e-04  -1.067467e-02  0 
 3.323433e-03  -1.096293e-02  0 
 9.861455e-04  -1.425192e-02  0 
 3.422866e-03  -1.440296e-02  0 
 1.178994e-03  -1.049596e-02  0 
 1.589760e-03  -1.044084e-02  0 
 1.998787e-03  -1.043382e-02  0 
 2.405861e-03  -1.048592e-02  0 
 2.836049e-03  -1.063445e-02  0 
 9.209867e-04  -1.135670e-02  0 
 9.614907e-04  -1.193816e-02  0 
 9.750880e-04  -1.250455e-02  0 
 9.893871e-04  -1.305788e-02  0 
 9.946385e-04  -1.361928e-02  0 
 3.299335e-03  -1.177112e-02  0 
 3.337515e-03  -1.237262e-02  0 
 3.377932e-03  -1.291245e-02  0 
 3.385439e-03  -1.341755e-02  0 
 3.399773e-03  -1.388251e-02  0 
 1.401109e-03  -1.435237e-02  0 
 1.819001e-03  -1.438253e-02  0 
 2.230124e-03  -1.439408e-02  0 
 2.642159e-03  -1.440163e-02  0 
 3.047626e-03  -1.439879e-02  0 
 2.454228e-03  -1.317853e-02  0 
 1.806156e-03  -1.229588e-02  0 
 2.752031e-03  -1.364121e-02  0 
 2.646517e-03  -1.206597e-02  0 
 2.862020e-03  -1.409312e-02  0 
 2.732165e-03  -1.136755e-02  0 
 1.717675e-03  -1.293697e-02  0 
 2.856588e-03  -1.300405e-02  0 
 2.238244e-03  -1.365334e-02  0 
 2.159428e-03  -1.211226e-02  0 
 2.052916e-03  -1.326341e-02  0 
 2.146990e-03  -1.269595e-02  0 
 2.418520e-03  -1.403754e-02  0 
 2.253411e-03  -1.135976e-02  0 
 3.128357e-03  -1.377292e-02  0 
 3.084556e-03  -1.206433e-02  0 
 1.550648e-03  -1.389798e-02  0 
 1.439631e-03  -1.230923e-02  0 
 1.469485e-03  -1.329243e-02  0 
 2.561356e-03  -1.266239e-02  0 
 1.379375e-03  -1.276432e-02  0 
 1.198211e-03  -1.291205e-02  0 
 1.166238e-03  -1.234998e-02  0 
 1.701096e-03  -1.151472e-02  0 
 2.002828e-03  -1.403750e-02  0 
 2.884156e-03  -1.252197e-02  0 
 3.124896e-03  -1.326512e-02  0 
 1.156152e-03  -1.169315e-02  0 
 3.158160e-03  -1.412516e-02  0 
 3.083539e-03  -1.139774e-02  0 
 1.244535e-03  -1.346906e-02  0 
 3.132662e-03  -1.270510e-02  0 
 1.843699e-03  -1.354794e-02  0 
 1.248116e-03  -1.392791e-02  0 
 1.302169e-03  -1.105552e-02  0 
 1.041079e-03  -1.110151e-02  0 
VECTORS displacement_ITER14 FLOAT
 8.295783e-04  -1.066309e-02  0 
 3.324570e-03  -1.097316e-02  0 
 9.857193e-04  -1.426096e-02  0 
 3.424388e-03  -1.438354e-02  0 
 1.175958e-03  -1.050121e-02  0 
 1.582716e-03  -1.043991e-02  0 
 1.984882e-03  -1.043206e-02  0 
 2.390903e-03  -1.049089e-02  0 
 2.834638e-03  -1.063443e-02  0 
 9.137936e-04  -1.135685e-02  0 
 9.506948e-04  -1.194264e-02  0 
 9.696493e-04  -1.250796e-02  0 
 9.822970e-04  -1.306182e-02  0 
 9.910960e-04  -1.362456e-02  0 
 3.305732e-03  -1.177741e-02  0 
 3.331871e-03  -1.236010e-02  0 
 3.363512e-03  -1.290239e-02  0 
 3.383250e-03  -1.340147e-02  0 
 3.401038e-03  -1.388610e-02  0 
 1.393189e-03  -1.435091e-02  0 
 1.811666e-03  -1.438804e-02  0 
 2.226173e-03  -1.440341e-02  0 
 2.638199e-03  -1.440837e-02  0 
 3.043070e-03  -1.441325e-02  0 