# vtk DataFile Version 3.1
this is an vtk file created by FEMAC
ASCII
DATASET UNSTRUCTURED_GRID
POINTS 55 FLOAT
1.000000 0.000000 0.000000
2.000000 0.000000 0.000000
1.000000 1.000000 0.000000
2.000000 1.000000 0.000000
1.166667 0.000000 0.000000
1.333333 0.000000 0.000000
1.500000 0.000000 0.000000
1.666667 0.000000 0.000000
1.833333 0.000000 0.000000
1.000000 0.166667 0.000000
1.000000 0.333333 0.000000
1.000000 0.500000 0.000000
1.000000 0.666667 0.000000
1.000000 0.833333 0.000000
1.166667 1.000000 0.000000
1.333333 1.000000 0.000000
1.500000 1.000000 0.000000
1.666667 1.000000 0.000000
1.833333 1.000000 0.000000
2.000000 0.166667 0.000000
2.000000 0.333333 0.000000
2.000000 0.500000 0.000000
2.000000 0.666667 0.000000
2.000000 0.833333 0.000000
1.516680 0.357651 0.000000
1.340965 0.619661 0.000000
1.697960 0.626063 0.000000
1.240896 0.265181 0.000000
1.834847 0.272058 0.000000
1.230758 0.871050 0.000000
1.778048 0.878823 0.000000
1.137258 0.144877 0.000000
1.617170 0.811170 0.000000
1.518228 0.641104 0.000000
1.403052 0.807657 0.000000
1.750201 0.452642 0.000000
1.495363 0.205546 0.000000
1.674360 0.144904 0.000000
1.276625 0.439027 0.000000
1.591027 0.474715 0.000000
1.437753 0.475144 0.000000
1.885216 0.770722 0.000000
1.157566 0.572111 0.000000
1.632618 0.308489 0.000000
1.376441 0.312987 0.000000
1.321422 0.132656 0.000000
1.763283 0.749506 0.000000
1.121751 0.764362 0.000000
1.116049 0.345885 0.000000
1.854226 0.603981 0.000000
1.258847 0.726345 0.000000
1.103835 0.893749 0.000000
1.899319 0.896576 0.000000
1.885584 0.430544 0.000000
1.834868 0.097272 0.000000
CELLS 84 336 
3 4 31  0
3 31  9  0
3 30 18 17
3 33 26 32
3 16 34 32
3 37  6  7
3 6 37 36
3 26 39 35
3 39 26 33
3 40 25 38
3 25 40 33
3 41 22 23
3 43 28 35
3 43 24 36
3 27 44 38
3 45 27 31
3 26 46 32
3 30 46 41
3 46 30 32
3 12 47 13
3 47 12 42
3 27 48 31
3 49 22 41
3 50 25 34
3 29 50 34
3 25 50 42
3 33 34 25
3 33 32 34
3 39 40 24
3 39 33 40
3 43 39 24
3 35 39 43
3 44 36 24
3 43 37 28
3 36 37 43
3 40 44 24
3 40 38 44
3 49 46 26
3 41 46 49
3 47 50 29
3 47 42 50
3 17 16 32
3 30 17 32
3 16 15 34
3 15 29 34
3 14 29 15
3 48 11 10
3 48 27 38
3 6 45  5
3 6 36 45
3 44 27 45
3 45 36 44
3 49 21 22
3 49 26 35
3 11 42 12
3 48 42 11
3 25 42 38
3 48 38 42
3 4  5 45
3 31  4 45
3 10  9 48
3 9 31 48
3 20 28 19
3 13 51  2
3 51 14  2
3 51 13 47
3 18 52  3
3 23 52 41
3 52 23  3
3 51 29 14
3 47 29 51
3 30 52 18
3 30 41 52
3 53 21 49
3 35 53 49
3 20 53 28
3 53 20 21
3 53 35 28
3 54  8  1
3 19 54  1
3 54  7  8
3 54 28 37
3 28 54 19
3 37  7 54
CELL_TYPES 84
5 5 5 5 5 5 5 5 5 5 5 5 5 5 5 5 5 5 5 5 5 5 5 5 5 5 5 5 5 5 5 5 5 5 5 5 5 5 5 5 5 5 5 5 5 5 5 5 5 5 5 5 5 5 5 5 5 5 5 5 5 5 5 5 5 5 5 5 5 5 5 5 5 5 5 5 5 5 5 5 5 5 5 5 
POINT_DATA 55
VECTORS displacement_ITER1 FLOAT
 -2.344964e-04  -1.889214e-03  0 
 -1.118139e-02  -5.749794e-03  0 
 -8.191664e-04  4.001468e-04  0 
 -3.227016e-03  -4.754406e-03  0 
 -3.163809e-03  -4.562454e-03  0 
 -5.110060e-03  -6.306366e-03  0 
 -6.729453e-03  -7.769008e-03  0 
 -8.099288e-03  -8.249481e-03  0 
 -9.322376e-03  -7.825915e-03  0 
 -7.431618e-04  -1.022082e-03  0 
 -3.065825e-04  4.361178e-05  0 
 6.844248e-05  -2.268150e-04  0 
 7.637871e-05  1.833387e-04  0 
 -1.124950e-03  -1.953482e-03  0 
 -2.267834e-03  -4.827983e-03  0 
 -1.777927e-03  -2.474183e-03  0 
 -2.381565e-03  -3.915878e-04  0 
 -2.060115e-03  -6.903897e-04  0 
 -2.114358e-03  -3.208329e-03  0 
 -1.057247e-02  -6.462640e-03  0 
 -1.045152e-02  -6.381289e-03  0 
 -7.561708e-03  -5.970876e-03  0 
 -6.751980e-03  -4.866080e-03  0 
 -7.079458e-03  -6.015791e-03  0 
 -4.928062e-03  -4.226910e-03  0 
 -1.953215e-03  -1.763183e-03  0 
 -5.026848e-03  -3.611610e-03  0 
 -2.462092e-03  -2.716852e-03  0 
 -9.019343e-03  -6.281763e-03  0 
 -1.288755e-03  -2.017581e-03  0 
 -3.979238e-03  -2.430206e-03  0 
 -1.912175e-03  -2.373247e-03  0 
 -3.283694e-03  -1.411681e-03  0 
 -3.176955e-03  -2.386913e-03  0 
 -1.637798e-03  -1.490456e-03  0 
 -6.599330e-03  -4.576897e-03  0 
 -5.591213e-03  -5.475095e-03  0 
 -7.962499e-03  -6.972283e-03  0 
 -2.138869e-03  -2.021399e-03  0 
 -4.960617e-03  -3.841397e-03  0 
 -3.433480e-03  -2.869996e-03  0 
 -6.267754e-03  -4.653358e-03  0 
 -8.960529e-04  -9.236430e-04  0 
 -6.470707e-03  -5.211099e-03  0 
 -3.662111e-03  -3.576696e-03  0 
 -4.089747e-03  -4.828049e-03  0 
 -5.148796e-03  -3.387052e-03  0 
 -5.852078e-04  -1.060566e-03  0 
 -1.102404e-03  -1.190635e-03  0 
 -6.173545e-03  -4.703837e-03  0 
 -1.132170e-03  -1.382669e-03  0 
 -2.108604e-03  -2.516133e-03  0 
 -4.568297e-03  -4.005040e-03  0 
 -7.946334e-03  -5.176489e-03  0 
 -9.675812e-03  -7.094621e-03  0 
VECTORS displacement_ITER2 FLOAT
 -3.209342e-04  -6.724793e-04  0 
 -9.539971e-03  -4.228656e-03  0 
 -1.154428e-03  -8.339039e-04  0 
 -2.842511e-03  -2.947357e-03  0 
 -2.395483e-03  -3.785333e-03  0 
 -3.679217e-03  -5.221413e-03  0 
 -4.788423e-03  -6.277336e-03  0 
 -5.933672e-03  -6.248427e-03  0 
 -7.317320e-03  -5.881873e-03  0 
 -2.275481e-04  -1.022796e-03  0 
 -1.581857e-04  -8.063343e-04  0 
 1.610606e-04  -1.161208e-03  0 
 -4.406508e-04  -1.181764e-03  0 
 -5.455059e-04  -4.442148e-04  0 
 -1.500059e-03  -1.582719e-03  0 
 -1.196921e-03  -1.250477e-03  0 
 -1.665910e-03  -1.229977e-03  0 
 -1.363386e-03  -2.514578e-03  0 
 -2.459252e-03  -4.361678e-03  0 
 -7.861691e-03  -4.611800e-03  0 
 -7.014723e-03  -4.648631e-03  0 
 -6.549866e-03  -4.958377e-03  0 
 -5.020982e-03  -4.295793e-03  0 
 -4.694570e-03  -3.926890e-03  0 
 -3.794173e-03  -3.404637e-03  0 
 -1.938046e-03  -1.548322e-03  0 
 -4.001512e-03  -3.040671e-03  0 
 -1.581501e-03  -2.553261e-03  0 
 -6.607673e-03  -4.617522e-03  0 
 -1.249669e-03  -9.943110e-04  0 
 -2.971809e-03  -3.517495e-03  0 
 -1.026734e-03  -2.175803e-03  0 
 -2.869307e-03  -2.083856e-03  0 
 -2.884628e-03  -2.161514e-03  0 
 -1.875481e-03  -1.366283e-03  0 
 -5.180643e-03  -3.768345e-03  0 
 -4.192209e-03  -4.418860e-03  0 
 -6.016406e-03  -5.161067e-03  0 
 -1.692525e-03  -1.969316e-03  0 
 -3.953035e-03  -3.086113e-03  0 
 -2.834749e-03  -2.433621e-03  0 
 -4.137854e-03  -3.883054e-03  0 
 -8.536527e-04  -1.177084e-03  0 
 -4.951262e-03  -4.089249e-03  0 
 -2.698964e-03  -3.058429e-03  0 
 -2.822941e-03  -4.249241e-03  0 
 -3.794895e-03  -3.233461e-03  0 
 -1.029926e-03  -9.684084e-04  0 
 -6.491543e-04  -1.624550e-03  0 
 -4.861709e-03  -3.745843e-03  0 
 -1.454680e-03  -1.104641e-03  0 
 -1.052588e-03  -9.606062e-04  0 
 -3.234634e-03  -3.577417e-03  0 
 -6.200525e-03  -4.516032e-03  0 
 -7.414521e-03  -4.959171e-03  0 
VECTORS displacement_ITER3 FLOAT
 -4.706463e-04  -6.214484e-04  0 
 -8.461170e-03  -3.809575e-03  0 
 -1.001634e-03  -1.078189e-03  0 
 -3.035283e-03  -3.393035e-03  0 
 -2.362142e-03  -3.595963e-03  0 
 -3.509276e-03  -4.985919e-03  0 
 -4.485119e-03  -6.034617e-03  0 
 -5.493677e-03  -6.031823e-03  0 
 -6.621119e-03  -5.565389e-03  0 
 -2.021977e-04  -8.586578e-04  0 
 -1.495584e-04  -7.913625e-04  0 
 7.835362e-06  -8.621832e-04  0 
 -5.036528e-04  -1.384391e-03  0 
 -3.948461e-05  -4.406704e-04  0 
 -9.352915e-04  -4.344319e-04  0 
 -1.804918e-03  -1.380806e-03  0 
 -2.400820e-03  -2.013282e-03  0 
 -2.523760e-03  -2.912220e-03  0 
 -2.792109e-03  -3.515042e-03  0 
 -7.419753e-03  -4.253318e-03  0 
 -6.551122e-03  -4.455052e-03  0 
 -6.273486e-03  -4.462844e-03  0 
 -4.852926e-03  -4.234525e-03  0 
 -4.190796e-03  -3.504963e-03  0 
 -3.532943e-03  -3.381744e-03  0 
 -1.885665e-03  -1.800427e-03  0 
 -3.779037e-03  -2.899923e-03  0 
 -1.520296e-03  -2.501476e-03  0 
 -6.214085e-03  -4.410623e-03  0 
 -1.430705e-03  -1.217216e-03  0 
 -3.085579e-03  -3.057276e-03  0 
 -1.005601e-03  -2.090809e-03  0 
 -2.895144e-03  -2.339386e-03  0 
 -2.797419e-03  -2.267706e-03  0 
 -2.117959e-03  -1.740065e-03  0 
 -4.866612e-03  -3.658898e-03  0 
 -3.906048e-03  -4.340068e-03  0 
 -5.574303e-03  -5.044240e-03  0 
 -1.594409e-03  -2.065767e-03  0 
 -3.685648e-03  -3.043894e-03  0 
 -2.646981e-03  -2.521148e-03  0 
 -3.870885e-03  -3.479768e-03  0 
 -8.396256e-04  -1.340293e-03  0 
 -4.632541e-03  -4.017403e-03  0 
 -2.521910e-03  -3.059058e-03  0 
 -2.677515e-03  -4.114622e-03  0 
 -3.597642e-03  -2.955618e-03  0 
 -1.005091e-03  -1.252480e-03  0 
 -6.640278e-04  -1.541422e-03  0 
 -4.709207e-03  -3.508016e-03  0 
 -1.504982e-03  -1.421754e-03  0 
 -6.109992e-04  -5.377591e-04  0 
 -3.371210e-03  -3.291978e-03  0 
 -5.813926e-03  -4.293827e-03  0 
 -6.849793e-03  -4.827911e-03  0 
VECTORS displacement_ITER4 FLOAT
 -2.885186e-04  -8.283618e-04  0 
 -7.634364e-03  -4.221251e-03  0 
 -7.534975e-04  -8.902891e-04  0 
 -2.585543e-03  -3.890439e-03  0 
 -2.223630e-03  -3.278554e-03  0 
 -3.395014e-03  -4.597522e-03  0 
 -4.349376e-03  -5.637182e-03  0 
 -5.227346e-03  -5.839327e-03  0 
 -6.155985e-03  -5.560066e-03  0 
 -3.935611e-04  -6.916573e-04  0 
 -2.828463e-04  -4.486047e-04  0 
 4.288177e-05  -3.033784e-04  0 
 -1.885438e-04  -7.577645e-04  0 
 -4.729460e-04  -1.002940e-03  0 
 -1.233244e-03  -1.320269e-03  0 
 -1.778720e-03  -1.912630e-03  0 
 -2.088243e-03  -2.253083e-03  0 
 -2.366511e-03  -2.400870e-03  0 
 -2.264587e-03  -2.471785e-03  0 
 -6.885285e-03  -4.447206e-03  0 
 -6.308576e-03  -4.470761e-03  0 
 -5.509826e-03  -4.175007e-03  0 
 -4.701636e-03  -4.067113e-03  0 
 -3.918087e-03  -3.693446e-03  0 
 -3.241382e-03  -3.326633e-03  0 
 -1.566119e-03  -1.787771e-03  0 
 -3.398323e-03  -2.896444e-03  0 
 -1.559929e-03  -2.232519e-03  0 
 -5.760246e-03  -4.462922e-03  0 
 -1.334205e-03  -1.481768e-03  0 
 -2.747856e-03  -2.446405e-03  0 
 -1.134530e-03  -1.806617e-03  0 
 -2.401647e-03  -2.220727e-03  0 
 -2.403121e-03  -2.232281e-03  0 
 -1.753063e-03  -1.792100e-03  0 
 -4.426491e-03  -3.647965e-03  0 
 -3.649856e-03  -4.156939e-03  0 
 -5.162847e-03  -4.994407e-03  0 
 -1.467428e-03  -1.954133e-03  0 
 -3.329391e-03  -3.051994e-03  0 
 -2.363867e-03  -2.489028e-03  0 
 -3.720199e-03  -3.295902e-03  0 
 -6.410535e-04  -1.153449e-03  0 
 -4.255346e-03  -3.980840e-03  0 
 -2.373867e-03  -2.906763e-03  0 
 -2.641411e-03  -3.716910e-03  0 
 -3.258369e-03  -2.779261e-03  0 
 -7.577170e-04  -1.165143e-03  0 
 -7.807841e-04  -1.250607e-03  0 
 -4.355508e-03  -3.545397e-03  0 
 -1.192837e-03  -1.436892e-03  0 
 -9.411671e-04  -1.158736e-03  0 
 -3.163326e-03  -3.054508e-03  0 
 -5.274206e-03  -4.077354e-03  0 
 -6.304409e-03  -4.962090e-03  0 
VECTORS displacement_ITER5 FLOAT
 -3.537887e-04  -7.609935e-04  0 
 -7.552994e-03  -4.580628e-03  0 
 -9.256488e-04  -9.926841e-04  0 
 -2.576236e-03  -3.752889e-03  0 
 -2.194888e-03  -3.279750e-03  0 
 -3.322012e-03  -4.570857e-03  0 
 -4.257518e-03  -5.583995e-03  0 
 -5.157237e-03  -5.821227e-03  0 
 -6.114201e-03  -5.655093e-03  0 
 -2.731483e-04  -7.051047e-04  0 
 -2.424553e-04  -6.449944e-04  0 
 -1.644433e-04  -4.188515e-04  0 
 -7.846978e-05  -4.589608e-04  0 
 -5.230998e-04  -7.821587e-04  0 
 -1.289841e-03  -1.418487e-03  0 
 -1.570671e-03  -1.656725e-03  0 
 -1.793642e-03  -2.044498e-03  0 
 -2.022714e-03  -2.287489e-03  0 
 -2.231932e-03  -2.686718e-03  0 
 -6.850433e-03  -4.548551e-03  0 
 -6.099284e-03  -4.416612e-03  0 
 -5.339196e-03  -4.179358e-03  0 
 -4.742815e-03  -4.151210e-03  0 
 -3.680515e-03  -4.067179e-03  0 
 -3.199898e-03  -3.310255e-03  0 
 -1.597316e-03  -1.728853e-03  0 
 -3.393665e-03  -2.940904e-03  0 
 -1.505640e-03  -2.223532e-03  0 
 -5.606945e-03  -4.420801e-03  0 
 -1.185880e-03  -1.278340e-03  0 
 -2.624391e-03  -2.608734e-03  0 
 -1.040179e-03  -1.840190e-03  0 
 -2.327517e-03  -2.185360e-03  0 
 -2.405728e-03  -2.205004e-03  0 
 -1.665620e-03  -1.648593e-03  0 
 -4.362334e-03  -3.677483e-03  0 
 -3.573545e-03  -4.129129e-03  0 
 -5.035837e-03  -4.959692e-03  0 
 -1.474657e-03  -1.897975e-03  0 
 -3.305828e-03  -3.058118e-03  0 
 -2.358870e-03  -2.454962e-03  0 
 -3.661179e-03  -3.389902e-03  0 
 -7.620215e-04  -1.153423e-03  0 
 -4.177976e-03  -3.969860e-03  0 
 -2.337348e-03  -2.877718e-03  0 
 -2.563983e-03  -3.715817e-03  0 
 -3.209222e-03  -2.866854e-03  0 
 -6.677520e-04  -9.151705e-04  0 
 -7.468420e-04  -1.264228e-03  0 
 -4.334329e-03  -3.651955e-03  0 
 -1.166267e-03  -1.329801e-03  0 
 -9.361467e-04  -1.082570e-03  0 
 -2.942450e-03  -3.242023e-03  0 
 -5.138596e-03  -4.077918e-03  0 
 -6.193919e-03  -5.044660e-03  0 
VECTORS displacement_ITER6 FLOAT
 -4.281409e-04  -6.730646e-04  0 
 -7.392631e-03  -4.697208e-03  0 
 -1.034611e-03  -1.060993e-03  0 
 -2.505989e-03  -3.715409e-03  0 
 -2.213127e-03  -3.304299e-03  0 
 -3.296530e-03  -4.624832e-03  0 
 -4.198573e-03  -5.661342e-03  0 
 -5.070094e-03  -5.885086e-03  0 
 -5.999137e-03  -5.724131e-03  0 
 -2.004101e-04  -6.760288e-04  0 
 -1.865960e-04  -7.655534e-04  0 
 -3.027385e-04  -6.342639e-04  0 
 -1.360163e-04  -5.206252e-04  0 
 -3.488815e-04  -5.124442e-04  0 
 -1.328632e-03  -1.384937e-03  0 
 -1.528234e-03  -1.696658e-03  0 
 -1.767688e-03  -2.121017e-03  0 
 -1.953918e-03  -2.457539e-03  0 
 -2.276328e-03  -2.902017e-03  0 
 -6.733879e-03  -4.603082e-03  0 
 -6.001046e-03  -4.464806e-03  0 
 -5.357496e-03  -4.422731e-03  0 
 -4.609490e-03  -4.303049e-03  0 
 -3.656559e-03  -4.131405e-03  0 
 -3.160291e-03  -3.382881e-03  0 
 -1.636596e-03  -1.805650e-03  0 
 -3.356312e-03  -3.036299e-03  0 
 -1.441234e-03  -2.287312e-03  0 
 -5.538198e-03  -4.525305e-03  0 
 -1.157834e-03  -1.285097e-03  0 
 -2.577339e-03  -2.807841e-03  0 
 -9.809082e-04  -1.880883e-03  0 
 -2.318836e-03  -2.308033e-03  0 
 -2.406090e-03  -2.295686e-03  0 
 -1.671889e-03  -1.742639e-03  0 
 -4.342523e-03  -3.773584e-03  0 
 -3.519835e-03  -4.212231e-03  0 
 -4.959954e-03  -5.052634e-03  0 
 -1.457273e-03  -1.937882e-03  0 
 -3.281851e-03  -3.131106e-03  0 
 -2.343257e-03  -2.513631e-03  0 
 -3.573132e-03  -3.534062e-03  0 
 -8.628859e-04  -1.267365e-03  0 
 -4.131402e-03  -4.063040e-03  0 
 -2.291290e-03  -2.940168e-03  0 
 -2.509281e-03  -3.799429e-03  0 
 -3.159435e-03  -3.002817e-03  0 
 -6.819040e-04  -9.454538e-04  0 
 -6.794341e-04  -1.321946e-03  0 
 -4.261691e-03  -3.751838e-03  0 
 -1.204605e-03  -1.407488e-03  0 
 -8.323788e-04  -9.813918e-04  0 
 -2.885556e-03  -3.319930e-03  0 
 -5.141117e-03  -4.230779e-03  0 
 -6.073778e-03  -5.130418e-03  0 
VECTORS displacement_ITER7 FLOAT
 -4.042678e-04  -7.269565e-04  0 
 -7.326457e-03  -4.629290e-03  0 
 -9.882289e-04  -9.929369e-04  0 
 -2.392029e-03  -3.751408e-03  0 
 -2.221519e-03  -3.275160e-03  0 
 -3.313772e-03  -4.609564e-03  0 
 -4.211691e-03  -5.659516e-03  0 
 -5.052316e-03  -5.880014e-03  0 
 -5.950402e-03  -5.697406e-03  0 
 -2.718333e-04  -6.377019e-04  0 
 -1.673393e-04  -6.338987e-04  0 
 -2.277362e-04  -6.287353e-04  0 
 -2.257674e-04  -6.244060e-04  0 
 -3.163430e-04  -5.300097e-04  0 
 -1.420759e-03  -1.484732e-03  0 
 -1.674753e-03  -1.833925e-03  0 
 -1.901074e-03  -2.100970e-03  0 
 -2.033673e-03  -2.459163e-03  0 
 -2.238422e-03  -2.895754e-03  0 
 -6.662583e-03  -4.578540e-03  0 
 -6.008607e-03  -4.520961e-03  0 
 -5.358539e-03  -4.534081e-03  0 
 -4.506106e-03  -4.347276e-03  0 
 -3.710009e-03  -4.070945e-03  0 
 -3.141522e-03  -3.394083e-03  0 
 -1.597893e-03  -1.818829e-03  0 
 -3.313524e-03  -3.029910e-03  0 
 -1.443703e-03  -2.284251e-03  0 
 -5.541746e-03  -4.573469e-03  0 
 -1.221374e-03  -1.412773e-03  0 
 -2.576344e-03  -2.767679e-03  0 
 -1.036323e-03  -1.846550e-03  0 
 -2.319635e-03  -2.280459e-03  0 
 -2.363264e-03  -2.299733e-03  0 
 -1.668754e-03  -1.780142e-03  0 
 -4.325250e-03  -3.786567e-03  0 
 -3.518335e-03  -4.223759e-03  0 
 -4.957296e-03  -5.079491e-03  0 
 -1.426200e-03  -1.933591e-03  0 
 -3.251893e-03  -3.137004e-03  0 
 -2.309352e-03  -2.519222e-03  0 
 -3.544548e-03  -3.551598e-03  0 
 -8.243512e-04  -1.255887e-03  0 
 -4.120369e-03  -4.084040e-03  0 
 -2.279587e-03  -2.945034e-03  0 
 -2.529930e-03  -3.782011e-03  0 
 -3.138715e-03  -2.987547e-03  0 
 -7.327634e-04  -1.069610e-03  0 
 -6.531178e-04  -1.291224e-03  0 
 -4.205078e-03  -3.752381e-03  0 
 -1.199113e-03  -1.456851e-03  0 
 -8.584016e-04  -1.062438e-03  0 
 -2.891665e-03  -3.272804e-03  0 
 -5.148096e-03  -4.283198e-03  0 
 -6.034970e-03  -5.119806e-03  0 
VECTORS displacement_ITER8 FLOAT
 -3.777544e-04  -7.872637e-04  0 
 -7.386535e-03  -4.555556e-03  0 
 -9.728823e-04  -9.480922e-04  0 
 -2.440417e-03  -3.641475e-03  0 
 -2.224638e-03  -3.275568e-03  0 
 -3.338798e-03  -4.598682e-03  0 
 -4.252351e-03  -5.640946e-03  0 
 -5.100486e-03  -5.863927e-03  0 
 -6.000269e-03  -5.668119e-03  0 
 -3.124594e-04  -6.549394e-04  0 
 -1.756077e-04  -5.429034e-04  0 
 -1.657744e-04  -5.443079e-04  0 
 -2.535292e-04  -5.858546e-04  0 
 -3.425016e-04  -6.011344e-04  0 
 -1.458687e-03  -1.504743e-03  0 
 -1.725482e-03  -1.777282e-03  0 
 -1.933172e-03  -2.006558e-03  0 
 -2.052528e-03  -2.406703e-03  0 
 -2.231198e-03  -2.898565e-03  0 
 -6.717594e-03  -4.553439e-03  0 
 -6.044707e-03  -4.555595e-03  0 
 -5.352985e-03  -4.507872e-03  0 
 -4.573883e-03  -4.358819e-03  0 
 -3.733914e-03  -4.063359e-03  0 
 -3.174189e-03  -3.371065e-03  0 
 -1.586281e-03  -1.776156e-03  0 
 -3.339984e-03  -3.005109e-03  0 
 -1.478374e-03  -2.260925e-03  0 
 -5.590535e-03  -4.551118e-03  0 
 -1.238620e-03  -1.395979e-03  0 
 -2.595251e-03  -2.728126e-03  0 
 -1.075640e-03  -1.835615e-03  0 
 -2.340032e-03  -2.220445e-03  0 
 -2.372060e-03  -2.260048e-03  0 
 -1.669938e-03  -1.714226e-03  0 
 -4.347511e-03  -3.772955e-03  0 
 -3.559395e-03  -4.199725e-03  0 
 -5.007951e-03  -5.055557e-03  0 
 -1.440371e-03  -1.899950e-03  0 
 -3.274328e-03  -3.116365e-03  0 
 -2.325161e-03  -2.493039e-03  0 
 -3.579461e-03  -3.526291e-03  0 
 -7.974665e-04  -1.184234e-03  0 
 -4.159752e-03  -4.059747e-03  0 
 -2.313157e-03  -2.920103e-03  0 
 -2.567882e-03  -3.756395e-03  0 
 -3.166467e-03  -2.954843e-03  0 
 -7.329655e-04  -1.067751e-03  0 
 -6.718520e-04  -1.253218e-03  0 
 -4.244638e-03  -3.755595e-03  0 
 -1.183566e-03  -1.413473e-03  0 
 -8.971845e-04  -1.089460e-03  0 
 -2.893839e-03  -3.256452e-03  0 
 -5.154748e-03  -4.268164e-03  0 
 -6.096428e-03  -5.090366e-03  0 
VECTORS displacement_ITER9 FLOAT
 -3.781428e-04  -7.748437e-04  0 
 -7.391355e-03  -4.637364e-03  0 
 -1.029979e-03  -9.054900e-04  0 
 -2.471001e-03  -3.620497e-03  0 
 -2.214853e-03  -3.301293e-03  0 
 -3.326628e-03  -4.617641e-03  0 
 -4.240956e-03  -5.656297e-03  0 
 -5.096067e-03  -5.888453e-03  0 
 -6.004220e-03  -5.712990e-03  0 
 -2.706509e-04  -6.770343e-04  0 
 -2.268755e-04  -5.913658e-04  0 
 -1.775135e-04  -5.504551e-04  0 
 -2.019588e-04  -5.555018e-04  0 
 -3.300778e-04  -6.017587e-04  0 
 -1.447577e-03  -1.484221e-03  0 
 -1.657800e-03  -1.758011e-03  0 
 -1.890944e-03  -2.119873e-03  0 
 -2.085294e-03  -2.501564e-03  0 
 -2.222731e-03  -2.962341e-03  0 
 -6.707572e-03  -4.623008e-03  0 
 -6.028992e-03  -4.576774e-03  0 
 -5.322828e-03  -4.447991e-03  0 
 -4.642784e-03  -4.349016e-03  0 
 -3.766953e-03  -4.105259e-03  0 
 -3.171675e-03  -3.404164e-03  0 
 -1.604850e-03  -1.815347e-03  0 
 -3.359277e-03  -3.061777e-03  0 
 -1.484684e-03  -2.274228e-03  0 
 -5.560035e-03  -4.573205e-03  0 
 -1.224674e-03  -1.350113e-03  0 
 -2.614550e-03  -2.768132e-03  0 
 -1.045287e-03  -1.860495e-03  0 
 -2.351592e-03  -2.309867e-03  0 
 -2.396574e-03  -2.313470e-03  0 
 -1.691404e-03  -1.754607e-03  0 
 -4.334042e-03  -3.810565e-03  0 
 -3.548401e-03  -4.219389e-03  0 
 -4.990674e-03  -5.073629e-03  0 
 -1.458459e-03  -1.942188e-03  0 
 -3.277872e-03  -3.161142e-03  0 
 -2.338130e-03  -2.537151e-03  0 
 -3.625643e-03  -3.547331e-03  0 
 -8.018732e-04  -1.213771e-03  0 
 -4.145123e-03  -4.086443e-03  0 
 -2.315221e-03  -2.947566e-03  0 
 -2.556163e-03  -3.775540e-03  0 
 -3.191030e-03  -3.005319e-03  0 
 -7.038367e-04  -1.030922e-03  0 
 -7.086301e-04  -1.280652e-03  0 
 -4.272474e-03  -3.795476e-03  0 
 -1.190053e-03  -1.423242e-03  0 
 -9.058231e-04  -1.043437e-03  0 
 -2.902564e-03  -3.297401e-03  0 
 -5.121057e-03  -4.267340e-03  0 
 -6.088288e-03  -5.130887e-03  0 
VECTORS displacement_ITER10 FLOAT
 -3.926592e-04  -7.137353e-04  0 
 -7.328521e-03  -4.668168e-03  0 
 -1.021165e-03  -8.838465e-04  0 
 -2.506113e-03  -3.682303e-03  0 
 -2.207648e-03  -3.307230e-03  0 
 -3.304301e-03  -4.631878e-03  0 
 -4.209513e-03  -5.675034e-03  0 
 -5.064573e-03  -5.902785e-03  0 
 -5.966068e-03  -5.724170e-03  0 
 -2.357790e-04  -6.844783e-04  0 
 -2.218158e-04  -6.545313e-04  0 
 -1.813218e-04  -6.097870e-04  0 
 -2.051210e-04  -5.562606e-04  0 
 -3.402292e-04  -5.732006e-04  0 
 -1.406896e-03  -1.454612e-03  0 
 -1.648926e-03  -1.771694e-03  0 
 -1.873724e-03  -2.150219e-03  0 
 -2.084583e-03  -2.492617e-03  0 
 -2.265122e-03  -2.947391e-03  0 
 -6.716132e-03  -4.595895e-03  0 
 -6.033309e-03  -4.533444e-03  0 
 -5.331032e-03  -4.431226e-03  0 
 -4.612185e-03  -4.326867e-03  0 
 -3.779031e-03  -4.078367e-03  0 
 -3.161301e-03  -3.406974e-03  0 
 -1.620409e-03  -1.824695e-03  0 
 -3.361139e-03  -3.060026e-03  0 
 -1.455766e-03  -2.293673e-03  0 
 -5.556523e-03  -4.559580e-03  0 
 -1.229752e-03  -1.354154e-03  0 
 -2.634606e-03  -2.784415e-03  0 
 -1.005816e-03  -1.875707e-03  0 
 -2.356991e-03  -2.329234e-03  0 
 -2.407082e-03  -2.320353e-03  0 
 -1.702395e-03  -1.767783e-03  0 
 -4.335596e-03  -3.793597e-03  0 
 -3.522467e-03  -4.232912e-03  0 
 -4.961604e-03  -5.086786e-03  0 
 -1.457157e-03  -1.957359e-03  0 
 -3.279135e-03  -3.157106e-03  0 
 -2.340656e-03  -2.541647e-03  0 
 -3.622209e-03  -3.550628e-03  0 
 -8.185896e-04  -1.236006e-03  0 
 -4.133651e-03  -4.086442e-03  0 
 -2.295965e-03  -2.959605e-03  0 
 -2.523204e-03  -3.799494e-03  0 
 -3.193052e-03  -3.013627e-03  0 
 -7.176387e-04  -1.021736e-03  0 
 -6.929120e-04  -1.319513e-03  0 
 -4.262766e-03  -3.774678e-03  0 
 -1.207517e-03  -1.431626e-03  0 
 -9.001977e-04  -1.016458e-03  0 
 -2.942033e-03  -3.300635e-03  0 
 -5.129840e-03  -4.246633e-03  0 
 -6.056083e-03  -5.148620e-03  0 
VECTORS displacement_ITER11 FLOAT
 -3.735631e-04  -7.104254e-04  0 
 -7.368412e-03  -4.649041e-03  0 
 -9.780041e-04  -9.112004e-04  0 
 -2.518573e-03  -3.651112e-03  0 
 -2.208839e-03  -3.288975e-03  0 
 -3.315910e-03  -4.617471e-03  0 
 -4.227242e-03  -5.662606e-03  0 
 -5.082849e-03  -5.891041e-03  0 
 -5.989975e-03  -5.713429e-03  0 
 -2.619568e-04  -6.741775e-04  0 
 -2.127302e-04  -6.230779e-04  0 
 -1.716722e-04  -5.803240e-04  0 
 -2.060180e-04  -5.498625e-04  0 
 -3.650989e-04  -6.053400e-04  0 
 -1.407658e-03  -1.472227e-03  0 
 -1.657206e-03  -1.776155e-03  0 
 -1.849522e-03  -2.085513e-03  0 
 -2.046811e-03  -2.426804e-03  0 
 -2.240775e-03  -2.901917e-03  0 
 -6.720560e-03  -4.592566e-03  0 
 -6.038176e-03  -4.528266e-03  0 
 -5.354290e-03  -4.476005e-03  0 
 -4.600290e-03  -4.338010e-03  0 
 -3.770430e-03  -4.091054e-03  0 
 -3.166685e-03  -3.392698e-03  0 
 -1.603228e-03  -1.798010e-03  0 
 -3.354490e-03  -3.042000e-03  0 
 -1.461813e-03  -2.273965e-03  0 
 -5.567697e-03  -4.560016e-03  0 
 -1.223905e-03  -1.364010e-03  0 
 -2.615691e-03  -2.754201e-03  0 
 -1.022683e-03  -1.851203e-03  0 
 -2.337004e-03  -2.284690e-03  0 
 -2.391861e-03  -2.292193e-03  0 
 -1.675048e-03  -1.731495e-03  0 
 -4.347261e-03  -3.789049e-03  0 
 -3.536106e-03  -4.218899e-03  0 
 -4.980502e-03  -5.075851e-03  0 
 -1.452183e-03  -1.933516e-03  0 
 -3.281239e-03  -3.141358e-03  0 
 -2.336258e-03  -2.520337e-03  0 
 -3.612891e-03  -3.548728e-03  0 
 -8.049366e-04  -1.210589e-03  0 
 -4.144260e-03  -4.078416e-03  0 
 -2.301295e-03  -2.940584e-03  0 
 -2.536812e-03  -3.778900e-03  0 
 -3.182430e-03  -2.993804e-03  0 
 -7.146691e-04  -1.024805e-03  0 
 -6.906357e-04  -1.296782e-03  0 
 -4.258614e-03  -3.771071e-03  0 
 -1.188924e-03  -1.412923e-03  0 
 -9.011107e-04  -1.054357e-03  0 
 -2.929347e-03  -3.290039e-03  0 
 -5.151473e-03  -4.260770e-03  0 
 -6.076009e-03  -5.132651e-03  0 
VECTORS displacement_ITER12 FLOAT
 -3.613192e-04  -7.176531e-04  0 
 -7.365408e-03  -4.629076e-03  0 
 -9.669556e-04  -9.325771e-04  0 
 -2.512172e-03  -3.683411e-03  0 
 -2.201839e-03  -3.278902e-03  0 
 -3.309796e-03  -4.605815e-03  0 
 -4.220289e-03  -5.647872e-03  0 
 -5.074693e-03  -5.876050e-03  0 
 -5.982546e-03  -5.697975e-03  0 
 -2.742829e-04  -6.715283e-04  0 
 -2.052361e-04  -6.130088e-04  0 
 -1.752184e-04  -5.773409e-04  0 
 -2.044463e-04  -5.749521e-04  0 
 -3.569656e-04  -5.961970e-04  0 
 -1.399495e-03  -1.454684e-03  0 
 -1.668682e-03  -1.765197e-03  0 
 -1.870014e-03  -2.067329e-03  0 
 -2.061620e-03  -2.432822e-03  0 
 -2.252905e-03  -2.924837e-03  0 
 -6.704410e-03  -4.584893e-03  0 
 -6.023860e-03  -4.522187e-03  0 
 -5.335795e-03  -4.457094e-03  0 
 -4.589798e-03  -4.322522e-03  0 
 -3.755458e-03  -4.094358e-03  0 
 -3.158603e-03  -3.386877e-03  0 
 -1.600174e-03  -1.799523e-03  0 
 -3.350015e-03  -3.037093e-03  0 
 -1.460281e-03  -2.270145e-03  0 
 -5.553846e-03  -4.548553e-03  0 
 -1.223146e-03  -1.367858e-03  0 
 -2.623961e-03  -2.761723e-03  0 
 -1.028814e-03  -1.842626e-03  0 
 -2.346993e-03  -2.281640e-03  0 
 -2.389603e-03  -2.292873e-03  0 
 -1.678184e-03  -1.731657e-03  0 
 -4.333729e-03  -3.779722e-03  0 
 -3.529179e-03  -4.208910e-03  0 
 -4.971912e-03  -5.061572e-03  0 
 -1.445728e-03  -1.933660e-03  0 
 -3.272189e-03  -3.137047e-03  0 
 -2.329619e-03  -2.519044e-03  0 
 -3.609229e-03  -3.544049e-03  0 
 -8.000273e-04  -1.216810e-03  0 
 -4.133566e-03  -4.068383e-03  0 
 -2.295926e-03  -2.936611e-03  0 
 -2.534573e-03  -3.767793e-03  0 
 -3.183724e-03  -2.991303e-03  0 
 -7.177508e-04  -1.033258e-03  0 
 -6.868982e-04  -1.291562e-03  0 
 -4.249132e-03  -3.760992e-03  0 
 -1.189775e-03  -1.417071e-03  0 
 -8.870646e-04  -1.053185e-03  0 
 -2.928813e-03  -3.301808e-03  0 
 -5.134098e-03  -4.247748e-03  0 
 -6.067825e-03  -5.116147e-03  0 
VECTORS displacement_ITER13 FLOAT
 -3.647479e-04  -7.167473e-04  0 
 -7.350751e-03  -4.611874e-03  0 
 -9.534177e-04  -9.518365e-04  0 
 -2.518917e-03  -3.665552e-03  0 
 -2.206473e-03  -3.279350e-03  0 
 -3.314425e-03  -4.609396e-03  0 
 -4.224065e-03  -5.655073e-03  0 
 -5.075513e-03  -5.883209e-03  0 
 -5.975739e-03  -5.697719e-03  0 
 -2.756885e-04  -6.655568e-04  0 
 -2.040960e-04  -6.138209e-04  0 
 -1.850315e-04  -5.795192e-04  0 
 -2.074625e-04  -5.745065e-04  0 
 -3.460377e-04  -5.881653e-04  0 
 -1.384558e-03  -1.457770e-03  0 
 -1.650243e-03  -1.773146e-03  0 
 -1.865468e-03  -2.097684e-03  0 
 -2.056003e-03  -2.459312e-03  0 
 -2.255079e-03  -2.909296e-03  0 
 -6.702655e-03  -4.586313e-03  0 
 -6.029570e-03  -4.540409e-03  0 
 -5.331042e-03  -4.462853e-03  0 
 -4.596313e-03  -4.336749e-03  0 
 -3.751793e-03  -4.083075e-03  0 
 -3.159395e-03  -3.392785e-03  0 
 -1.600942e-03  -1.809385e-03  0 
 -3.345381e-03  -3.046323e-03  0 
 -1.461430e-03  -2.271986e-03  0 
 -5.558640e-03  -4.558969e-03  0 
 -1.211129e-03  -1.374815e-03  0 
 -2.613368e-03  -2.767972e-03  0 
 -1.031614e-03  -1.841743e-03  0 
 -2.338939e-03  -2.297653e-03  0 
 -2.386164e-03  -2.303925e-03  0 
 -1.675010e-03  -1.751398e-03  0 
 -4.332114e-03  -3.790015e-03  0 
 -3.531743e-03  -4.215216e-03  0 
 -4.975216e-03  -5.070895e-03  0 
 -1.446703e-03  -1.935966e-03  0 
 -3.270081e-03  -3.145028e-03  0 
 -2.328880e-03  -2.524872e-03  0 
 -3.601637e-03  -3.545832e-03  0 
 -8.060817e-04  -1.222539e-03  0 
 -4.135752e-03  -4.076244e-03  0 
 -2.297191e-03  -2.940239e-03  0 
 -2.537453e-03  -3.771411e-03  0 
 -3.175175e-03  -2.998694e-03  0 
 -7.142403e-04  -1.037800e-03  0 
 -6.867506e-04  -1.290586e-03  0 
 -4.248902e-03  -3.773261e-03  0 
 -1.189311e-03  -1.428282e-03  0 
 -8.703303e-04  -1.057019e-03  0 
 -2.926934e-03  -3.293712e-03  0 
 -5.131425e-03  -4.256808e-03  0 
 -6.068123e-03  -5.121376e-03  0 
VECTORS displacement_ITER14 FLOAT
 -3.672432e-04  -7.209820e-04  0 
 -7.361668e-03  -4.621815e-03  0 
 -9.563799e-04  -9.436711e-04  0 
 -2.502894e-03  -3.672238e-03  0 
 -2.203215e-03  -3.278880e-03  0 
 -3.308719e-03  -4.604867e-03  0 
 -4.217464e-03  -5.646595e-03  0 
 -5.070904e-03  -5.874156e-03  0 
 -5.977934e-03  -5.695225e-03  0 
 -2.719740e-04  -6.674208e-04  0 
 -2.080455e-04  -6.196631e-04  0 
 -1.777894e-04  -5.813702e-04  0 
 -2.015499e-04  -5.706500e-04  0 
 -3.599980e-04  -5.988438e-04  0 
 -1.392056e-03  -1.473532e-03  0 
 -1.645078e-03  -1.764239e-03  0 
 -1.866646e-03  -2.090827e-03  0 
 -2.052699e-03  -2.455608e-03  0 
 -2.237047e-03  -2.912360e-03  0 
 -6.694914e-03  -4.587665e-03  0 
 -6.012072e-03  -4.535137e-03  0 
 -5.324144e-03  -4.449194e-03  0 
 -4.591458e-03  -4.329817e-03  0 
 -3.737537e-03  -4.093335e-03  0 
 -3.154467e-03  -3.388591e-03  0 
 -1.597845e-03  -1.806741e-03  0 
 -3.341623e-03  -3.041763e-03  0 
 -1.459528e-03  -2.271595e-03  0 
 -5.546075e-03  -4.550602e-03  0 
 -1.209306e-03  -1.370737e-03  0 
 -2.606189e-03  -2.761732e-03  0 
 -1.028762e-03  -1.844073e-03  0 
 -2.335875e-03  -2.290683e-03  0 
 -2.382403e-03  -2.300166e-03  0 
 -1.673017e-03  -1.748078e-03  0 
 -4.323877e-03  -3.785973e-03  0 
 -3.526850e-03  -4.208747e-03  0 
 -4.968437e-03  -5.060272e-03  0 
 -1.444872e-03  -1.936141e-03  0 
 -3.264701e-03  -3.141702e-03  0 
 -2.325384e-03  -2.522444e-03  0 
 -3.597103e-03  -3.542389e-03  0 
 -8.015403e-04  -1.221057e-03  0 
 -4.128536e-03  -4.069941e-03  0 
 -2.294082e-03  -2.937426e-03  0 
 -2.533319e-03  -3.768401e-03  0 
 -3.171755e-03  -2.992658e-03  0 
 -7.129747e-04  -1.032717e-03  0 
 -6.872538e-04  -1.294063e-03  0 
 -4.245334e-03  -3.767185e-03  0 
 -1.187399e-03  -1.424639e-03  0 
 -8.815958e-04  -1.065065e-03  0 
 -2.913004e-03  -3.298644e-03  0 
 -5.119786e-03  -4.251321e-03  0 
 -6.063743e-03  -5.113780e-03  0 
VECTORS displacement_ITER15 FLOAT
 -3.746528e-04  -7.242551e-04  0 
 -7.355200e-03  -4.620166e-03  0 
 -9.560375e-04  -9.424114e-04  0 
 -2.513329e-03  -3.667006e-03  0 
 -2.207280e-03  -3.286221e-03  0 
 -3.311427e-03  -4.611644e-03  0 
 -4.219302e-03  -5.654046e-03  0 
 -5.071182e-03  -5.879753e-03  0 
 -5.975392e-03  -5.697198e-03  0 
 -2.680971e-04  -6.717807e-04  0 
 -2.106502e-04  -6.240794e-04  0 
 -1.797046e-04  -5.794548e-04  0 
 -2.036783e-04  -5.643477e-04  0 
 -3.505662e-04  -6.051247e-04  0 
 -1.394402e-03  -1.470917e-03  0 
 -1.644060e-03  -1.772084e-03  0 
 -1.865559e-03  -2.097056e-03  0 