# vtk DataFile Version 3.1
this is an vtk file created by FEMAC
ASCII
DATASET UNSTRUCTURED_GRID
POINTS 60 FLOAT
3.000000 4.000000 0.000000
3.000000 5.000000 0.000000
4.000000 4.000000 0.000000
4.000000 5.000000 0.000000
3.000000 4.166667 0.000000
3.000000 4.333333 0.000000
3.000000 4.500000 0.000000
3.000000 4.666667 0.000000
3.000000 4.833333 0.000000
3.166667 4.000000 0.000000
3.333333 4.000000 0.000000
3.500000 4.000000 0.000000
3.666667 4.000000 0.000000
3.833333 4.000000 0.000000
3.166667 5.000000 0.000000
3.333333 5.000000 0.000000
3.500000 5.000000 0.000000
3.666667 5.000000 0.000000
3.833333 5.000000 0.000000
4.000000 4.166667 0.000000
4.000000 4.333333 0.000000
4.000000 4.500000 0.000000
4.000000 4.666667 0.000000
4.000000 4.833333 0.000000
3.613228 4.549603 0.000000
3.398223 4.353651 0.000000
3.724591 4.693117 0.000000
3.704494 4.276546 0.000000
3.767554 4.865918 0.000000
3.759088 4.131628 0.000000
3.344099 4.519490 0.000000
3.767522 4.501245 0.000000
3.519576 4.702841 0.000000
3.534075 4.300471 0.000000
3.460008 4.590314 0.000000
3.513802 4.433983 0.000000
3.583568 4.838150 0.000000
3.581911 4.153052 0.000000
3.884224 4.763208 0.000000
3.865916 4.255897 0.000000
3.224137 4.842504 0.000000
3.262220 4.373387 0.000000
3.217359 4.658551 0.000000
3.661897 4.412518 0.000000
3.206588 4.510700 0.000000
3.110924 4.583696 0.000000
3.122989 4.419394 0.000000
3.378673 4.189552 0.000000
3.411659 4.854858 0.000000
3.780369 4.374342 0.000000
3.879726 4.591624 0.000000
3.159112 4.236566 0.000000
3.897022 4.892492 0.000000
3.891774 4.106594 0.000000
3.109067 4.749262 0.000000
3.882255 4.426074 0.000000
3.362806 4.694760 0.000000
3.099974 4.885020 0.000000
3.224224 4.101890 0.000000
3.110000 4.101025 0.000000
CELLS 94 376 
3 13 29 12
3 28 18 17
3 24 31 26
3 26 32 24
3 34 24 32
3 35 25 33
3 25 35 30
3 17 36 28
3 36 26 28
3 37 12 29
3 27 37 29
3 38 22 23
3 40 15 14
3 24 43 31
3 27 43 33
3 34 35 24
3 34 30 35
3 35 43 24
3 35 33 43
3 16 36 17
3 32 26 36
3 37 11 12
3 27 33 37
3 20 39 19
3 29 39 27
3 25 30 41
3 26 38 28
3 42 44 30
3 44 41 30
3 6 45  7
3 42 45 44
3 46  6  5
3 46 41 44
3 47 25 41
3 49 31 43
3 22 50 21
3 50 22 38
3 18 52  3
3 52 23  3
3 53 13  2
3 19 53  2
3 4 51  5
3 49 27 39
3 43 27 49
3 51 46  5
3 41 46 51
3 50 26 31
3 38 26 50
3 46 45  6
3 44 45 46
3 41 51 47
3 23 52 38
3 52 28 38
3 28 52 18
3 53 19 39
3 29 53 39
3 53 29 13
3 11 47 10
3 47 33 25
3 47 11 37
3 37 33 47
3 15 40 48
3 48 16 15
3 16 48 36
3 32 36 48
3 54  8  7
3 54 42 40
3 21 55 20
3 49 55 31
3 42 56 40
3 56 48 40
3 8 57  1
3 14 57 40
3 57 14  1
3 45 54  7
3 45 42 54
3 55 39 20
3 49 39 55
3 54 57  8
3 54 40 57
3 50 55 21
3 50 31 55
3 34 56 30
3 42 30 56
3 56 34 32
3 32 48 56
3 58  9 10
3 58 47 51
3 47 58 10
3 59  4  0
3 9 59  0
3 59  9 58
3 51 59 58
3 59 51  4
CELL_TYPES 94
5 5 5 5 5 5 5 5 5 5 5 5 5 5 5 5 5 5 5 5 5 5 5 5 5 5 5 5 5 5 5 5 5 5 5 5 5 5 5 5 5 5 5 5 5 5 5 5 5 5 5 5 5 5 5 5 5 5 5 5 5 5 5 5 5 5 5 5 5 5 5 5 5 5 5 5 5 5 5 5 5 5 5 5 5 5 5 5 5 5 5 5 5 5 
POINT_DATA 60
VECTORS displacement_ITER1 FLOAT
 6.423886e-03  -1.120687e-02  0 
 1.038353e-02  -1.547633e-02  0 
 7.825939e-03  -1.787745e-02  0 
 1.284791e-02  -2.008179e-02  0 
 4.762439e-03  -1.176730e-02  0 
 6.785558e-03  -1.216658e-02  0 
 7.791235e-03  -1.194139e-02  0 
 7.701246e-03  -1.292498e-02  0 
 8.597992e-03  -1.391508e-02  0 
 6.414047e-03  -1.305989e-02  0 
 8.204795e-03  -1.302398e-02  0 
 8.206864e-03  -1.399913e-02  0 
 8.225001e-03  -1.403851e-02  0 
 7.851266e-03  -1.426757e-02  0 
 1.090718e-02  -1.645337e-02  0 
 1.093030e-02  -1.688708e-02  0 
 1.088365e-02  -1.762867e-02  0 
 1.114846e-02  -1.874450e-02  0 
 1.137475e-02  -1.994437e-02  0 
 9.702047e-03  -1.738125e-02  0 
 1.060830e-02  -1.768178e-02  0 
 1.031129e-02  -1.740225e-02  0 
 1.128316e-02  -1.734659e-02  0 
 1.298405e-02  -1.792450e-02  0 
 9.897872e-03  -1.675400e-02  0 
 7.995330e-03  -1.482362e-02  0 
 1.073468e-02  -1.747250e-02  0 
 9.051867e-03  -1.561688e-02  0 
 1.114571e-02  -1.861043e-02  0 
 8.633079e-03  -1.478024e-02  0 
 8.506998e-03  -1.531285e-02  0 
 1.029601e-02  -1.705274e-02  0 
 1.007119e-02  -1.713603e-02  0 
 8.390057e-03  -1.506225e-02  0 
 9.402393e-03  -1.636684e-02  0 
 8.881852e-03  -1.574501e-02  0 
 1.051777e-02  -1.780566e-02  0 
 8.103150e-03  -1.441768e-02  0 
 1.169201e-02  -1.758611e-02  0 
 9.814952e-03  -1.647878e-02  0 
 9.935405e-03  -1.613047e-02  0 
 7.478733e-03  -1.436510e-02  0 
 8.852812e-03  -1.480820e-02  0 
 9.477947e-03  -1.625100e-02  0 
 8.039592e-03  -1.417964e-02  0 
 8.169756e-03  -1.334508e-02  0 
 7.439842e-03  -1.335498e-02  0 
 7.461722e-03  -1.404158e-02  0 
 1.033956e-02  -1.710188e-02  0 
 9.809489e-03  -1.665540e-02  0 
 1.072038e-02  -1.720812e-02  0 
 6.571594e-03  -1.364121e-02  0 
 1.202993e-02  -1.883373e-02  0 
 9.076010e-03  -1.589625e-02  0 
 8.710326e-03  -1.447888e-02  0 
 1.033324e-02  -1.736837e-02  0 
 9.623238e-03  -1.627004e-02  0 
 9.745765e-03  -1.541941e-02  0 
 6.827279e-03  -1.357781e-02  0 
 6.119096e-03  -1.216976e-02  0 
VECTORS displacement_ITER2 FLOAT
 4.361335e-03  -7.931326e-03  0 
 7.172001e-03  -1.269355e-02  0 
 6.454907e-03  -1.275951e-02  0 
 9.142857e-03  -1.485386e-02  0 
 3.650734e-03  -9.244044e-03  0 
 4.512044e-03  -9.827224e-03  0 
 4.931791e-03  -1.004476e-02  0 
 6.017592e-03  -1.003229e-02  0 
 6.388352e-03  -1.103757e-02  0 
 5.431654e-03  -8.906240e-03  0 
 6.020370e-03  -9.354197e-03  0 
 5.556338e-03  -1.070094e-02  0 
 5.489378e-03  -1.161609e-02  0 
 6.194568e-03  -1.274697e-02  0 
 7.971388e-03  -1.204082e-02  0 
 8.155254e-03  -1.273499e-02  0 
 8.443244e-03  -1.351272e-02  0 
 8.494823e-03  -1.467509e-02  0 
 8.483655e-03  -1.540201e-02  0 
 6.734059e-03  -1.415599e-02  0 
 6.861618e-03  -1.431621e-02  0 
 7.629846e-03  -1.450867e-02  0 
 8.349925e-03  -1.457964e-02  0 
 8.866648e-03  -1.458657e-02  0 
 7.072972e-03  -1.316621e-02  0 
 5.849335e-03  -1.143280e-02  0 
 7.790470e-03  -1.399029e-02  0 
 6.546307e-03  -1.272258e-02  0 
 8.300773e-03  -1.475384e-02  0 
 6.138989e-03  -1.275342e-02  0 
 6.087110e-03  -1.203635e-02  0 
 7.329603e-03  -1.351072e-02  0 
 7.229074e-03  -1.339028e-02  0 
 6.257893e-03  -1.176658e-02  0 
 6.709592e-03  -1.280354e-02  0 
 6.470756e-03  -1.233008e-02  0 
 7.788885e-03  -1.397479e-02  0 
 5.912597e-03  -1.151977e-02  0 
 8.461268e-03  -1.448169e-02  0 
 6.672016e-03  -1.363692e-02  0 
 7.372988e-03  -1.217860e-02  0 
 5.314765e-03  -1.108652e-02  0 
 6.340936e-03  -1.176239e-02  0 
 6.872965e-03  -1.286493e-02  0 
 5.636628e-03  -1.127361e-02  0 
 5.671156e-03  -1.093026e-02  0 
 5.023825e-03  -1.055292e-02  0 
 5.635568e-03  -1.036291e-02  0 
 7.656857e-03  -1.305783e-02  0 
 6.953879e-03  -1.334223e-02  0 
 7.870541e-03  -1.409986e-02  0 
 4.721174e-03  -1.023534e-02  0 
 8.736614e-03  -1.479001e-02  0 
 6.259928e-03  -1.321060e-02  0 
 6.630584e-03  -1.116225e-02  0 
 7.190202e-03  -1.384076e-02  0 
 6.884244e-03  -1.264753e-02  0 
 7.281345e-03  -1.177144e-02  0 
 5.257980e-03  -9.607288e-03  0 
 4.666842e-03  -9.165314e-03  0 
VECTORS displacement_ITER3 FLOAT
 3.432738e-03  -7.387003e-03  0 
 6.294318e-03  -9.726266e-03  0 
 4.874262e-03  -1.160245e-02  0 
 7.458370e-03  -1.297947e-02  0 
 3.484263e-03  -8.827192e-03  0 
 4.103673e-03  -8.799793e-03  0 
 4.541448e-03  -8.638995e-03  0 
 4.878039e-03  -8.830836e-03  0 
 5.100077e-03  -9.220671e-03  0 
 4.456802e-03  -8.968348e-03  0 
 4.721656e-03  -8.898360e-03  0 
 4.550926e-03  -9.419382e-03  0 
 4.630380e-03  -9.962133e-03  0 
 5.037897e-03  -1.099382e-02  0 
 6.622768e-03  -1.023791e-02  0 
 6.744435e-03  -1.127118e-02  0 
 6.836839e-03  -1.171637e-02  0 
 6.888872e-03  -1.230412e-02  0 
 7.117061e-03  -1.299737e-02  0 
 5.558548e-03  -1.230055e-02  0 
 5.836765e-03  -1.259772e-02  0 
 6.445301e-03  -1.283784e-02  0 
 6.826431e-03  -1.280945e-02  0 
 7.210789e-03  -1.273903e-02  0 
 5.836808e-03  -1.154842e-02  0 
 4.798053e-03  -1.018084e-02  0 
 6.465032e-03  -1.221945e-02  0 
 5.346736e-03  -1.112629e-02  0 
 6.798307e-03  -1.255485e-02  0 
 5.087911e-03  -1.097568e-02  0 
 5.062311e-03  -1.044988e-02  0 
 6.050528e-03  -1.192781e-02  0 
 6.045567e-03  -1.160745e-02  0 
 5.038199e-03  -1.046978e-02  0 
 5.564236e-03  -1.110326e-02  0 
 5.281225e-03  -1.085079e-02  0 
 6.496636e-03  -1.203297e-02  0 
 4.820453e-03  -1.015384e-02  0 
 6.892027e-03  -1.260885e-02  0 
 5.542168e-03  -1.182482e-02  0 
 5.908419e-03  -1.051122e-02  0 
 4.480652e-03  -9.848156e-03  0 
 5.251134e-03  -1.003676e-02  0 
 5.600264e-03  -1.133703e-02  0 
 4.791185e-03  -9.791759e-03  0 
 4.875965e-03  -9.343282e-03  0 
 4.410256e-03  -9.324213e-03  0 
 4.510466e-03  -9.531781e-03  0 
 6.333080e-03  -1.141762e-02  0 
 5.732701e-03  -1.170104e-02  0 
 6.524650e-03  -1.247250e-02  0 
 4.037948e-03  -9.369042e-03  0 
 7.114915e-03  -1.280076e-02  0 
 5.168846e-03  -1.142187e-02  0 
 5.272733e-03  -9.577330e-03  0 
 6.021251e-03  -1.219750e-02  0 
 5.698320e-03  -1.089336e-02  0 
 5.829713e-03  -9.933209e-03  0 
 4.295350e-03  -9.138481e-03  0 
 4.086753e-03  -8.900289e-03  0 
VECTORS displacement_ITER4 FLOAT
 3.133590e-03  -7.858684e-03  0 
 5.701529e-03  -8.862001e-03  0 
 4.051649e-03  -1.121983e-02  0 
 6.519290e-03  -1.253946e-02  0 
 3.155447e-03  -8.095159e-03  0 
 3.611259e-03  -8.082159e-03  0 
 3.967362e-03  -7.972527e-03  0 
 4.287314e-03  -8.118190e-03  0 
 4.683254e-03  -8.554226e-03  0 
 3.612516e-03  -8.552888e-03  0 
 3.930658e-03  -8.840431e-03  0 
 4.025506e-03  -9.294263e-03  0 
 4.086729e-03  -9.755834e-03  0 
 4.097718e-03  -1.047032e-02  0 
 5.814507e-03  -9.460965e-03  0 
 5.892284e-03  -1.037736e-02  0 
 5.839924e-03  -1.088837e-02  0 
 5.981497e-03  -1.132871e-02  0 
 6.284325e-03  -1.190872e-02  0 
 4.506709e-03  -1.168491e-02  0 
 5.080254e-03  -1.184650e-02  0 
 5.593590e-03  -1.184382e-02  0 
 5.887395e-03  -1.185875e-02  0 
 6.238927e-03  -1.203559e-02  0 
 5.061035e-03  -1.088945e-02  0 
 4.150754e-03  -9.731131e-03  0 
 5.564843e-03  -1.141815e-02  0 
 4.559442e-03  -1.052065e-02  0 
 5.871208e-03  -1.160523e-02  0 
 4.291756e-03  -1.038973e-02  0 
 4.448224e-03  -9.845399e-03  0 
 5.241507e-03  -1.122854e-02  0 
 5.281915e-03  -1.083718e-02  0 
 4.301538e-03  -1.004123e-02  0 
 4.875297e-03  -1.043882e-02  0 
 4.563423e-03  -1.030472e-02  0 
 5.651917e-03  -1.113551e-02  0 
 4.138152e-03  -9.815436e-03  0 
 5.890349e-03  -1.178028e-02  0 
 4.719303e-03  -1.110333e-02  0 
 5.244966e-03  -9.774754e-03  0 
 3.932342e-03  -9.300080e-03  0 
 4.656447e-03  -9.419701e-03  0 
 4.816683e-03  -1.072376e-02  0 
 4.212341e-03  -9.171739e-03  0 
 4.277933e-03  -8.699261e-03  0 
 3.880708e-03  -8.690813e-03  0 
 3.861913e-03  -9.342660e-03  0 
 5.524174e-03  -1.063719e-02  0 
 4.948273e-03  -1.100342e-02  0 
 5.621561e-03  -1.163880e-02  0 
 3.552171e-03  -8.831401e-03  0 
 6.107310e-03  -1.200712e-02  0 
 4.283720e-03  -1.094858e-02  0 
 4.729897e-03  -8.960920e-03  0 
 5.258161e-03  -1.143795e-02  0 
 5.013892e-03  -1.021525e-02  0 
 5.229604e-03  -9.214279e-03  0 
 3.611739e-03  -8.839665e-03  0 
 3.391289e-03  -8.480657e-03  0 
VECTORS displacement_ITER5 FLOAT
 3.124094e-03  -7.962597e-03  0 
 5.259841e-03  -8.645494e-03  0 
 3.846620e-03  -1.103272e-02  0 
 5.959490e-03  -1.226743e-02  0 
 2.955640e-03  -7.508886e-03  0 
 3.257484e-03  -7.572128e-03  0 
 3.576280e-03  -7.672455e-03  0 
 4.074260e-03  -7.820374e-03  0 
 4.455514e-03  -8.234112e-03  0 
 3.183298e-03  -8.154955e-03  0 
 3.292512e-03  -8.702730e-03  0 
 3.382101e-03  -9.218007e-03  0 
 3.501592e-03  -9.732787e-03  0 
 3.566485e-03  -1.019064e-02  0 
 5.461939e-03  -9.279876e-03  0 
 5.630599e-03  -9.975282e-03  0 
 5.652075e-03  -1.064168e-02  0 
 5.780380e-03  -1.125324e-02  0 
 5.844493e-03  -1.179457e-02  0 
 4.022909e-03  -1.147322e-02  0 
 4.578025e-03  -1.174553e-02  0 
 5.007330e-03  -1.184776e-02  0 
 5.472597e-03  -1.196449e-02  0 
 5.840460e-03  -1.207778e-02  0 
 4.642598e-03  -1.071666e-02  0 
 3.777052e-03  -9.497990e-03  0 
 5.157718e-03  -1.129657e-02  0 
 4.045203e-03  -1.046752e-02  0 
 5.563091e-03  -1.159133e-02  0 
 3.765193e-03  -1.032352e-02  0 
 4.124224e-03  -9.561636e-03  0 
 4.758531e-03  -1.114451e-02  0 
 4.914822e-03  -1.060034e-02  0 
 3.858906e-03  -9.910361e-03  0 
 4.517878e-03  -1.019452e-02  0 
 4.163706e-03  -1.011750e-02  0 
 5.325989e-03  -1.094653e-02  0 
 3.620850e-03  -9.768530e-03  0 
 5.531518e-03  -1.179169e-02  0 
 4.199247e-03  -1.104174e-02  0 
 4.996060e-03  -9.428917e-03  0 
 3.613716e-03  -8.955528e-03  0 
 4.354517e-03  -9.130775e-03  0 
 4.348981e-03  -1.061209e-02  0 
 3.905197e-03  -8.860100e-03  0 
 3.968383e-03  -8.434925e-03  0 
 3.554686e-03  -8.304227e-03  0 
 3.428009e-03  -9.136928e-03  0 
 5.222573e-03  -1.030548e-02  0 
 4.423782e-03  -1.095669e-02  0 
 5.131969e-03  -1.159009e-02  0 
 3.227995e-03  -8.363637e-03  0 
 5.741167e-03  -1.195536e-02  0 
 3.858294e-03  -1.086383e-02  0 
 4.491061e-03  -8.636847e-03  0 
 4.710774e-03  -1.141863e-02  0 
 4.688817e-03  -9.928780e-03  0 
 4.938669e-03  -8.908273e-03  0 
 3.177676e-03  -8.459275e-03  0 
 3.004563e-03  -8.044242e-03  0 
VECTORS displacement_ITER6 FLOAT
 2.904580e-03  -7.731718e-03  0 
 4.915278e-03  -8.156777e-03  0 
 3.381066e-03  -1.101533e-02  0 
 5.766163e-03  -1.203654e-02  0 
 3.025955e-03  -7.793399e-03  0 
 3.240843e-03  -7.791738e-03  0 
 3.547582e-03  -7.797739e-03  0 
 3.934035e-03  -7.881678e-03  0 
 4.245460e-03  -8.013036e-03  0 
 3.145946e-03  -8.529803e-03  0 
 3.234148e-03  -8.826627e-03  0 
 3.330439e-03  -9.202377e-03  0 
 3.391424e-03  -9.656726e-03  0 
 3.337934e-03  -1.013521e-02  0 
 5.164779e-03  -9.159626e-03  0 
 5.316025e-03  -9.838312e-03  0 
 5.407384e-03  -1.050053e-02  0 
 5.499139e-03  -1.112363e-02  0 
 5.572398e-03  -1.159165e-02  0 
 3.911433e-03  -1.133953e-02  0 
 4.534715e-03  -1.149414e-02  0 
 4.840403e-03  -1.149710e-02  0 
 5.257297e-03  -1.159949e-02  0 
 5.642876e-03  -1.177380e-02  0 
 4.465567e-03  -1.055670e-02  0 
 3.669731e-03  -9.464463e-03  0 
 4.938333e-03  -1.108904e-02  0 
 3.943979e-03  -1.029156e-02  0 
 5.315654e-03  -1.138603e-02  0 
 3.640039e-03  -1.014330e-02  0 
 3.963302e-03  -9.490552e-03  0 
 4.610514e-03  -1.094754e-02  0 
 4.677539e-03  -1.045301e-02  0 
 3.743005e-03  -9.818920e-03  0 
 4.319271e-03  -1.006868e-02  0 
 4.018776e-03  -1.000595e-02  0 
 5.062607e-03  -1.080096e-02  0 
 3.529121e-03  -9.666913e-03  0 
 5.306968e-03  -1.150610e-02  0 
 4.127366e-03  -1.082225e-02  0 
 4.697168e-03  -9.284568e-03  0 
 3.532892e-03  -8.983973e-03  0 
 4.147600e-03  -9.039257e-03  0 
 4.213344e-03  -1.045125e-02  0 
 3.782615e-03  -8.864927e-03  0 
 3.851156e-03  -8.445103e-03  0 
 3.491504e-03  -8.410938e-03  0 
 3.349220e-03  -9.180628e-03  0 
 4.945561e-03  -1.014571e-02  0 
 4.315092e-03  -1.075872e-02  0 
 4.938889e-03  -1.131096e-02  0 
 3.214720e-03  -8.504878e-03  0 
 5.512264e-03  -1.169591e-02  0 
 3.667433e-03  -1.067506e-02  0 
 4.242126e-03  -8.531334e-03  0 
 4.606815e-03  -1.119150e-02  0 
 4.453811e-03  -9.793691e-03  0 
 4.620316e-03  -8.667963e-03  0 
 3.150993e-03  -8.663099e-03  0 
 3.082613e-03  -8.294482e-03  0 
VECTORS displacement_ITER7 FLOAT
 2.913201e-03  -7.902491e-03  0 
 4.803602e-03  -8.027569e-03  0 
 3.290964e-03  -1.104870e-02  0 
 5.715392e-03  -1.196169e-02  0 
 2.878860e-03  -7.746082e-03  0 
 3.166282e-03  -7.774520e-03  0 
 3.492155e-03  -7.806407e-03  0 
 3.802947e-03  -7.886467e-03  0 
 4.265531e-03  -7.930837e-03  0 
 3.069839e-03  -8.295880e-03  0 
 3.128082e-03  -8.746404e-03  0 
 3.181808e-03  -9.127680e-03  0 
 3.259986e-03  -9.640590e-03  0 
 3.325612e-03  -1.013926e-02  0 
 5.082939e-03  -9.083401e-03  0 
 5.201687e-03  -9.788419e-03  0 
 5.316089e-03  -1.045138e-02  0 
 5.394051e-03  -1.105600e-02  0 
 5.492529e-03  -1.154920e-02  0 
 3.847067e-03  -1.121351e-02  0 
 4.268014e-03  -1.140482e-02  0 
 4.704229e-03  -1.152471e-02  0 
 5.151954e-03  -1.160497e-02  0 
 5.518354e-03  -1.175440e-02  0 
 4.341606e-03  -1.048836e-02  0 
 3.582842e-03  -9.416953e-03  0 
 4.834221e-03  -1.103191e-02  0 
 3.825805e-03  -1.029171e-02  0 
 5.223401e-03  -1.132303e-02  0 
 3.553802e-03  -1.018582e-02  0 
 3.868464e-03  -9.446501e-03  0 
 4.459027e-03  -1.087402e-02  0 
 4.572989e-03  -1.038672e-02  0 
 3.653352e-03  -9.783567e-03  0 
 4.212631e-03  -1.001065e-02  0 
 3.917508e-03  -9.957344e-03  0 
 4.969122e-03  -1.074321e-02  0 
 3.434436e-03  -9.650764e-03  0 
 5.202026e-03  -1.147564e-02  0 
 3.964040e-03  -1.082556e-02  0 
 4.599204e-03  -9.240841e-03  0 
 3.446313e-03  -8.949036e-03  0 
 4.060204e-03  -9.005282e-03  0 
 4.091065e-03  -1.040650e-02  0 
 3.691976e-03  -8.823724e-03  0 
 3.756208e-03  -8.407238e-03  0 
 3.421131e-03  -8.388731e-03  0 
 3.264047e-03  -9.102017e-03  0 
 4.845534e-03  -1.008343e-02  0 
 4.160453e-03  -1.072442e-02  0 
 4.825223e-03  -1.128237e-02  0 
 3.111159e-03  -8.460159e-03  0 
 5.426881e-03  -1.163648e-02  0 
 3.622226e-03  -1.062972e-02  0 
 4.153524e-03  -8.527756e-03  0 
 4.406053e-03  -1.111897e-02  0 
 4.355520e-03  -9.737774e-03  0 
 4.563914e-03  -8.565853e-03  0 
 3.063262e-03  -8.537730e-03  0 
 2.937426e-03  -8.189187e-03  0 
VECTORS displacement_ITER8 FLOAT
 2.911721e-03  -7.886196e-03  0 
 4.767543e-03  -8.069370e-03  0 
 3.284818e-03  -1.088858e-02  0 
 5.746627e-03  -1.188855e-02  0 
 2.903890e-03  -7.743738e-03  0 
 3.178531e-03  -7.754607e-03  0 
 3.485436e-03  -7.781640e-03  0 
 3.825692e-03  -7.830538e-03  0 
 4.302932e-03  -7.931338e-03  0 
 3.052421e-03  -8.250004e-03  0 
 3.111067e-03  -8.721541e-03  0 
 3.149504e-03  -9.152692e-03  0 
 3.206637e-03  -9.693385e-03  0 
 3.299677e-03  -1.022789e-02  0 
 5.069289e-03  -9.086211e-03  0 
 5.216546e-03  -9.800916e-03  0 
 5.324219e-03  -1.045967e-02  0 
 5.396165e-03  -1.103812e-02  0 
 5.531910e-03  -1.155362e-02  0 
 3.804670e-03  -1.124139e-02  0 
 4.278080e-03  -1.146617e-02  0 
 4.767413e-03  -1.157977e-02  0 
 5.146010e-03  -1.164517e-02  0 
 5.511770e-03  -1.176302e-02  0 
 4.364610e-03  -1.049541e-02  0 
 3.589871e-03  -9.401712e-03  0 
 4.865624e-03  -1.104886e-02  0 
 3.820021e-03  -1.030487e-02  0 
 5.244473e-03  -1.130533e-02  0 
 3.513075e-03  -1.023342e-02  0 
 3.884243e-03  -9.435824e-03  0 
 4.480644e-03  -1.090138e-02  0 
 4.601563e-03  -1.038945e-02  0 
 3.657196e-03  -9.778658e-03  0 
 4.234482e-03  -1.000746e-02  0 
 3.930526e-03  -9.952724e-03  0 
 4.999940e-03  -1.074669e-02  0 
 3.416880e-03  -9.664557e-03  0 
 5.209516e-03  -1.148538e-02  0 
 3.938718e-03  -1.084846e-02  0 
 4.624468e-03  -9.227949e-03  0 
 3.451896e-03  -8.923823e-03  0 
 4.082093e-03  -9.000504e-03  0 
 4.102200e-03  -1.041411e-02  0 
 3.699722e-03  -8.802888e-03  0 
 3.760332e-03  -8.386592e-03  0 
 3.423941e-03  -8.359109e-03  0 
 3.267933e-03  -9.082430e-03  0 
 4.872124e-03  -1.009047e-02  0 
 4.171219e-03  -1.073617e-02  0 
 4.853498e-03  -1.133541e-02  0 
 3.119227e-03  -8.431300e-03  0 
 5.456644e-03  -1.162267e-02  0 
 3.550744e-03  -1.065043e-02  0 
 4.191045e-03  -8.513835e-03  0 
 4.439134e-03  -1.114928e-02  0 
 4.377974e-03  -9.735278e-03  0 
 4.583331e-03  -8.559493e-03  0 
 3.064418e-03  -8.507332e-03  0 
 2.944127e-03  -8.164900e-03  0 
VECTORS displacement_ITER9 FLOAT
 2.848126e-03  -7.818900e-03  0 
 4.842776e-03  -8.082397e-03  0 
 3.220617e-03  -1.101344e-02  0 
 5.693333e-03  -1.189663e-02  0 
 2.922776e-03  -7.783528e-03  0 
 3.176699e-03  -7.780646e-03  0 
 3.488526e-03  -7.790944e-03  0 
 3.878101e-03  -7.838080e-03  0 
 4.271851e-03  -7.943096e-03  0 
 3.006530e-03  -8.297223e-03  0 
 3.134108e-03  -8.690283e-03  0 
 3.213225e-03  -9.112167e-03  0 
 3.267193e-03  -9.576008e-03  0 
 3.293648e-03  -1.017032e-02  0 
 5.059199e-03  -9.120539e-03  0 
 5.219901e-03  -9.803070e-03  0 
 5.303921e-03  -1.042422e-02  0 
 5.395228e-03  -1.098935e-02  0 
 5.518155e-03  -1.152923e-02  0 
 3.832678e-03  -1.120771e-02  0 
 4.282772e-03  -1.137605e-02  0 
 4.751589e-03  -1.152976e-02  0 
 5.156453e-03  -1.163291e-02  0 
 5.517199e-03  -1.172426e-02  0 
 4.359352e-03  -1.047700e-02  0 
 3.588525e-03  -9.402728e-03  0 
 4.857464e-03  -1.101955e-02  0 
 3.835324e-03  -1.026137e-02  0 
 5.231375e-03  -1.128655e-02  0 
 3.558872e-03  -1.014516e-02  0 
 3.887180e-03  -9.438173e-03  0 
 4.471018e-03  -1.086600e-02  0 
 4.603216e-03  -1.037358e-02  0 
 3.656424e-03  -9.760902e-03  0 
 4.235344e-03  -9.999152e-03  0 
 3.928471e-03  -9.942970e-03  0 
 4.994449e-03  -1.071290e-02  0 
 3.436503e-03  -9.611113e-03  0 
 5.214689e-03  -1.146409e-02  0 
 3.975555e-03  -1.079149e-02  0 
 4.638254e-03  -9.234378e-03  0 
 3.453388e-03  -8.934739e-03  0 
 4.089228e-03  -9.003415e-03  0 
 4.101086e-03  -1.039176e-02  0 
 3.709323e-03  -8.820318e-03  0 
 3.781737e-03  -8.409106e-03  0 
 3.422450e-03  -8.376031e-03  0 
 3.269042e-03  -9.091866e-03  0 
 4.877784e-03  -1.008454e-02  0 
 4.175842e-03  -1.070045e-02  0 
 4.843309e-03  -1.129489e-02  0 
 3.123841e-03  -8.448598e-03  0 
 5.435203e-03  -1.161761e-02  0 
 3.589731e-03  -1.061090e-02  0 
 4.203818e-03  -8.505680e-03  0 
 4.427813e-03  -1.109649e-02  0 
 4.383493e-03  -9.733484e-03  0 
 4.582878e-03  -8.607508e-03  0 
 3.056560e-03  -8.542075e-03  0 
 2.952408e-03  -8.193689e-03  0 
VECTORS displacement_ITER10 FLOAT
 2.819930e-03  -7.836278e-03  0 
 4.863960e-03  -8.171057e-03  0 
 3.301172e-03  -1.098248e-02  0 
 5.669553e-03  -1.187488e-02  0 
 2.871021e-03  -7.781685e-03  0 
 3.132436e-03  -7.771398e-03  0 
 3.464819e-03  -7.754185e-03  0 
 3.844389e-03  -7.810567e-03  0 
 4.286887e-03  -7.933930e-03  0 
 2.971127e-03  -8.248242e-03  0 
 3.116543e-03  -8.643986e-03  0 
 3.212299e-03  -9.131215e-03  0 
 3.274232e-03  -9.618969e-03  0 
 3.314820e-03  -1.019618e-02  0 
 5.068264e-03  -9.091361e-03  0 
 5.218613e-03  -9.792726e-03  0 
 5.295612e-03  -1.042089e-02  0 
 5.398325e-03  -1.099877e-02  0 
 5.510893e-03  -1.152502e-02  0 
 3.808371e-03  -1.124511e-02  0 
 4.273580e-03  -1.141462e-02  0 
 4.729640e-03  -1.153389e-02  0 
 5.159462e-03  -1.164680e-02  0 
 5.511160e-03  -1.174666e-02  0 
 4.352219e-03  -1.049361e-02  0 
 3.571722e-03  -9.409932e-03  0 
 4.847053e-03  -1.102901e-02  0 
 3.826469e-03  -1.028449e-02  0 
 5.231785e-03  -1.129748e-02  0 
 3.551958e-03  -1.018163e-02  0 
 3.870541e-03  -9.450117e-03  0 
 4.465353e-03  -1.088177e-02  0 
 4.597519e-03  -1.038504e-02  0 
 3.648561e-03  -9.774563e-03  0 
 4.227281e-03  -1.001589e-02  0 
 3.917801e-03  -9.957892e-03  0 
 4.989604e-03  -1.071543e-02  0 
 3.432100e-03  -9.635204e-03  0 
 5.210488e-03  -1.148088e-02  0 
 3.960986e-03  -1.081955e-02  0 
 4.649953e-03  -9.242007e-03  0 
 3.425818e-03  -8.937632e-03  0 
 4.083526e-03  -9.007729e-03  0 
 4.093859e-03  -1.040819e-02  0 
 3.683985e-03  -8.818446e-03  0 
 3.759917e-03  -8.388822e-03  0 
 3.387745e-03  -8.368317e-03  0 
 3.258749e-03  -9.088821e-03  0 
 4.877149e-03  -1.008759e-02  0 
 4.166923e-03  -1.072054e-02  0 
 4.832420e-03  -1.130045e-02  0 
 3.085148e-03  -8.438205e-03  0 
 5.432523e-03  -1.162605e-02  0 
 3.584945e-03  -1.065293e-02  0 
 4.201849e-03  -8.511479e-03  0 
 4.420272e-03  -1.112005e-02  0 
 4.382015e-03  -9.747015e-03  0 
 4.617015e-03  -8.619245e-03  0 
 3.024388e-03  -8.512972e-03  0 
 2.906989e-03  -8.171198e-03  0 
VECTORS displacement_ITER11 FLOAT
 2.770140e-03  -7.812926e-03  0 
 4.894461e-03  -8.188485e-03  0 
 3.331161e-03  -1.099912e-02  0 
 5.675557e-03  -1.191367e-02  0 
 2.864833e-03  -7.795246e-03  0 
 3.132650e-03  -7.791420e-03  0 
 3.464526e-03  -7.794234e-03  0 
 3.832195e-03  -7.862645e-03  0 
 4.294976e-03  -7.972534e-03  0 
 2.974388e-03  -8.262534e-03  0 
 3.122654e-03  -8.644300e-03  0 
 3.209919e-03  -9.116720e-03  0 
 3.275240e-03  -9.605405e-03  0 
 3.320529e-03  -1.016073e-02  0 
 5.088881e-03  -9.119086e-03  0 
 5.228747e-03  -9.829928e-03  0 
 5.310348e-03  -1.044362e-02  0 
 5.402726e-03  -1.101568e-02  0 
 5.512616e-03  -1.153127e-02  0 
 3.811847e-03  -1.124897e-02  0 
 4.297743e-03  -1.142695e-02  0 
 4.742922e-03  -1.152667e-02  0 
 5.160138e-03  -1.162979e-02  0 
 5.514486e-03  -1.176756e-02  0 
 4.360994e-03  -1.051237e-02  0 
 3.574857e-03  -9.422558e-03  0 
 4.850346e-03  -1.104715e-02  0 
 3.836816e-03  -1.028384e-02  0 
 5.231830e-03  -1.131021e-02  0 
 3.559259e-03  -1.017281e-02  0 
 3.873763e-03  -9.471517e-03  0 
 4.480146e-03  -1.089342e-02  0 
 4.602132e-03  -1.040964e-02  0 
 3.654318e-03  -9.779961e-03  0 
 4.232686e-03  -1.003826e-02  0 
 3.924085e-03  -9.971865e-03  0 
 4.994432e-03  -1.073949e-02  0 
 3.436608e-03  -9.630015e-03  0 
 5.205700e-03  -1.148818e-02  0 
 3.974077e-03  -1.081890e-02  0 
 4.652328e-03  -9.281150e-03  0 
 3.426909e-03  -8.956807e-03  0 
 4.083876e-03  -9.038974e-03  0 
 4.105054e-03  -1.041700e-02  0 
 3.685459e-03  -8.842827e-03  0 
 3.757500e-03  -8.421991e-03  0 
 3.391176e-03  -8.393589e-03  0 
 3.257967e-03  -9.092021e-03  0 
 4.884265e-03  -1.011581e-02  0 
 4.182399e-03  -1.072449e-02  0 
 4.841802e-03  -1.130435e-02  0 
 3.082546e-03  -8.458876e-03  0 
 5.431245e-03  -1.164191e-02  0 
 3.601130e-03  -1.065442e-02  0 
 4.197678e-03  -8.555310e-03  0 
 4.441471e-03  -1.112744e-02  0 
 4.386006e-03  -9.774428e-03  0 
 4.626839e-03  -8.654268e-03  0 
 3.022780e-03  -8.526227e-03  0 
 2.901040e-03  -8.194297e-03  0 
VECTORS displacement_ITER12 FLOAT
 2.775308e-03  -7.815085e-03  0 
 4.899937e-03  -8.193970e-03  0 
 3.331466e-03  -1.100754e-02  0 
 5.676497e-03  -1.191581e-02  0 
 2.857071e-03  -7.781632e-03  0 
 3.132279e-03  -7.779084e-03  0 
 3.461858e-03  -7.793566e-03  0 
 3.848641e-03  -7.852807e-03  0 
 4.285553e-03  -7.971031e-03  0 
 2.984217e-03  -8.253715e-03  0 
 3.124008e-03  -8.642153e-03  0 
 3.199071e-03  -9.105576e-03  0 
 3.267999e-03  -9.596618e-03  0 
 3.324714e-03  -1.015642e-02  0 
 5.095780e-03  -9.115997e-03  0 
 5.242289e-03  -9.818081e-03  0 
 5.330643e-03  -1.044664e-02  0 
 5.416858e-03  -1.102783e-02  0 
 5.520167e-03  -1.153228e-02  0 
 3.810716e-03  -1.124386e-02  0 
 4.303017e-03  -1.142885e-02  0 
 4.750131e-03  -1.154134e-02  0 
 5.167611e-03  -1.163881e-02  0 
 5.525600e-03  -1.177201e-02  0 
 4.364769e-03  -1.051132e-02  0 
 3.575203e-03  -9.416566e-03  0 
 4.859241e-03  -1.105244e-02  0 
 3.836984e-03  -1.028374e-02  0 
 5.243522e-03  -1.131921e-02  0 
 3.559801e-03  -1.017263e-02  0 
 3.876087e-03  -9.466591e-03  0 
 4.484359e-03  -1.089595e-02  0 
 4.606768e-03  -1.040943e-02  0 
 3.654741e-03  -9.775506e-03  0 
 4.235690e-03  -1.003527e-02  0 
 3.925918e-03  -9.968263e-03  0 
 5.003776e-03  -1.074598e-02  0 
 3.433835e-03  -9.625109e-03  0 
 5.216632e-03  -1.149533e-02  0 
 3.974276e-03  -1.081759e-02  0 
 4.660771e-03  -9.270939e-03  0 
 3.426654e-03  -8.951097e-03  0 
 4.086797e-03  -9.031838e-03  0 
 4.106862e-03  -1.041588e-02  0 
 3.689026e-03  -8.837661e-03  0 
 3.761719e-03  -8.420576e-03  0 
 3.392483e-03  -8.385966e-03  0 
 3.255119e-03  -9.081359e-03  0 
 4.892408e-03  -1.011011e-02  0 
 4.183240e-03  -1.072566e-02  0 
 4.850153e-03  -1.131277e-02  0 
 3.079161e-03  -8.452251e-03  0 
 5.439711e-03  -1.164823e-02  0 
 3.604080e-03  -1.065272e-02  0 
 4.204597e-03  -8.541023e-03  0 
 4.444330e-03  -1.113284e-02  0 
 4.389986e-03  -9.769508e-03  0 
 4.628105e-03  -8.653154e-03  0 
 3.023425e-03  -8.517075e-03  0 
 2.897789e-03  -8.186279e-03  0 
VECTORS displacement_ITER13 FLOAT
 2.775654e-03  -7.821355e-03  0 
 4.900056e-03  -8.184771e-03  0 
 3.336136e-03  -1.098860e-02  0 
 5.684131e-03  -1.191634e-02  0 
 2.839832e-03  -7.780897e-03  0 
 3.126447e-03  -7.780468e-03  0 
 3.458793e-03  -7.783858e-03  0 
 3.839488e-03  -7.841825e-03  0 
 4.268854e-03  -7.970770e-03  0 
 2.978256e-03  -8.259252e-03  0 
 3.120032e-03  -8.660026e-03  0 
 3.189621e-03  -9.118460e-03  0 
 3.257115e-03  -9.605244e-03  0 
 3.319640e-03  -1.017218e-02  0 
 5.094460e-03  -9.118005e-03  0 
 5.242116e-03  -9.817011e-03  0 
 5.328521e-03  -1.045509e-02  0 
 5.415247e-03  -1.103442e-02  0 
 5.523735e-03  -1.153959e-02  0 
 3.810804e-03  -1.125874e-02  0 
 4.304365e-03  -1.144278e-02  0 
 4.748059e-03  -1.155627e-02  0 
 5.160397e-03  -1.165080e-02  0 
 5.527382e-03  -1.177382e-02  0 
 4.361527e-03  -1.051831e-02  0 
 3.567493e-03  -9.421187e-03  0 
 4.858786e-03  -1.105901e-02  0 
 3.831360e-03  -1.029453e-02  0 
 5.244064e-03  -1.132339e-02  0 
 3.552460e-03  -1.018400e-02  0 
 3.869450e-03  -9.468283e-03  0 
 4.480489e-03  -1.090806e-02  0 
 4.604347e-03  -1.041426e-02  0 
 3.647266e-03  -9.782644e-03  0 
 4.231322e-03  -1.003931e-02  0 
 3.919908e-03  -9.974058e-03  0 
 5.002804e-03  -1.075219e-02  0 
 3.424457e-03  -9.633754e-03  0 
 5.216444e-03  -1.149970e-02  0 
 3.971919e-03  -1.082982e-02  0 
 4.655607e-03  -9.270169e-03  0 
 3.418433e-03  -8.953801e-03  0 
 4.080865e-03  -9.028220e-03  0 
 4.101596e-03  -1.042578e-02  0 
 3.681938e-03  -8.835852e-03  0 
 3.755732e-03  -8.412800e-03  0 
 3.385511e-03  -8.385241e-03  0 
 3.246428e-03  -9.088086e-03  0 
 4.888681e-03  -1.011420e-02  0 
 4.179192e-03  -1.073795e-02  0 
 4.846174e-03  -1.132555e-02  0 
 3.070788e-03  -8.458388e-03  0 
 5.442949e-03  -1.165134e-02  0 
 3.595670e-03  -1.066232e-02  0 
 4.196494e-03  -8.534866e-03  0 
 4.441989e-03  -1.114704e-02  0 
 4.385872e-03  -9.771354e-03  0 
 4.618081e-03  -8.653585e-03  0 
 3.017799e-03  -8.525587e-03  0 
 2.888391e-03  -8.186626e-03  0 
VECTORS displacement_ITER14 FLOAT
 2.774196e-03  -7.818245e-03  0 
 4.892548e-03  -8.178873e-03  0 
 3.321212e-03  -1.097899e-02  0 
 5.684134e-03  -1.192728e-02  0 
 2.844134e-03  -7.776399e-03  0 
 3.126377e-03  -7.778920e-03  0 
 3.456182e-03  -7.776924e-03  0 
 3.829210e-03  -7.840139e-03  0 
 4.269788e-03  -7.982460e-03  0 
 2.979725e-03  -8.274542e-03  0 
 3.119502e-03  -8.668215e-03  0 
 3.194042e-03  -9.125387e-03  0 
 3.259063e-03  -9.606082e-03  0 
 3.311784e-03  -1.017184e-02  0 
 5.091459e-03  -9.118535e-03  0 
 5.235043e-03  -9.819838e-03  0 
 5.317181e-03  -1.045293e-02  0 
 5.406357e-03  -1.103038e-02  0 
 5.520223e-03  -1.154816e-02  0 
 3.819324e-03  -1.125708e-02  0 
 4.301156e-03  -1.143696e-02  0 
 4.748321e-03  -1.155175e-02  0 
 5.161788e-03  -1.165109e-02  0 
 5.524370e-03  -1.177118e-02  0 