# vtk DataFile Version 3.1
this is an vtk file created by FEMAC
ASCII
DATASET UNSTRUCTURED_GRID
POINTS 56 FLOAT
3.000000 3.000000 0.000000
3.000000 4.000000 0.000000
4.000000 3.000000 0.000000
4.000000 4.000000 0.000000
3.000000 3.166667 0.000000
3.000000 3.333333 0.000000
3.000000 3.500000 0.000000
3.000000 3.666667 0.000000
3.000000 3.833333 0.000000
3.166667 3.000000 0.000000
3.333333 3.000000 0.000000
3.500000 3.000000 0.000000
3.666667 3.000000 0.000000
3.833333 3.000000 0.000000
3.166667 4.000000 0.000000
3.333333 4.000000 0.000000
3.500000 4.000000 0.000000
3.666667 4.000000 0.000000
3.833333 4.000000 0.000000
4.000000 3.166667 0.000000
4.000000 3.333333 0.000000
4.000000 3.500000 0.000000
4.000000 3.666667 0.000000
4.000000 3.833333 0.000000
3.452497 3.586181 0.000000
3.656639 3.292185 0.000000
3.303324 3.257536 0.000000
3.746314 3.159110 0.000000
3.278818 3.589841 0.000000
3.523223 3.743160 0.000000
3.851064 3.463567 0.000000
3.482755 3.269223 0.000000
3.378933 3.415938 0.000000
3.555008 3.435021 0.000000
3.127915 3.724856 0.000000
3.675685 3.602035 0.000000
3.564166 3.137042 0.000000
3.659426 3.773415 0.000000
3.434034 3.854185 0.000000
3.143376 3.224644 0.000000
3.401951 3.127474 0.000000
3.114569 3.526675 0.000000
3.576682 3.884455 0.000000
3.203269 3.387591 0.000000
3.238664 3.115498 0.000000
3.741890 3.874349 0.000000
3.888407 3.142330 0.000000
3.882106 3.883020 0.000000
3.836327 3.283672 0.000000
3.109741 3.101362 0.000000
3.831707 3.750714 0.000000
3.275004 3.800186 0.000000
3.865132 3.603806 0.000000
3.392587 3.715568 0.000000
3.711862 3.428514 0.000000
3.150486 3.893063 0.000000
CELLS 86 344 
3 13 27 12
3 32 24 28
3 32 26 31
3 25 33 31
3 24 35 29
3 36 12 27
3 25 36 27
3 38 16 15
3 33 35 24
3 32 33 24
3 32 31 33
3 11 40 10
3 26 40 31
3 36 11 12
3 36 40 11
3 36 25 31
3 36 31 40
3 37 29 35
3 39  5  4
3 16 42 17
3 37 42 29
3 28 43 32
3 44  9 10
3 45 18 17
3 46 13  2
3 19 46  2
3 18 47  3
3 47 23  3
3 38 42 16
3 38 29 42
3 42 45 17
3 42 37 45
3 43 26 32
3 39 26 43
3 40 44 10
3 40 26 44
3 45 47 18
3 41 43 28
3 46 27 13
3 39 44 26
3 6 41  7
3 34 41 28
3 41 34  7
3 41  6  5
3 39 43  5
3 41  5 43
3 7 34  8
3 49  4  0
3 9 49  0
3 4 49 39
3 50 22 23
3 47 50 23
3 44 49  9
3 44 39 49
3 50 37 35
3 45 37 50
3 47 45 50
3 51 38 15
3 34 28 51
3 20 48 19
3 48 25 27
3 27 46 48
3 46 19 48
3 50 52 22
3 24 53 28
3 53 51 28
3 53 24 29
3 25 54 33
3 30 54 48
3 54 25 48
3 35 54 30
3 35 33 54
3 52 35 30
3 50 35 52
3 38 53 29
3 38 51 53
3 21 52 30
3 52 21 22
3 20 21 30
3 48 20 30
3 8 55  1
3 55 14  1
3 55 15 14
3 55 34 51
3 34 55  8
3 51 15 55
CELL_TYPES 86
5 5 5 5 5 5 5 5 5 5 5 5 5 5 5 5 5 5 5 5 5 5 5 5 5 5 5 5 5 5 5 5 5 5 5 5 5 5 5 5 5 5 5 5 5 5 5 5 5 5 5 5 5 5 5 5 5 5 5 5 5 5 5 5 5 5 5 5 5 5 5 5 5 5 5 5 5 5 5 5 5 5 5 5 5 5 
POINT_DATA 56
VECTORS displacement_ITER1 FLOAT
 3.183108e-03  -1.055485e-02  0 
 7.385336e-03  -1.120877e-02  0 
 3.091181e-03  -1.625541e-02  0 
 7.705210e-03  -1.628533e-02  0 
 3.878997e-03  -1.088555e-02  0 
 4.634424e-03  -1.106257e-02  0 
 5.367967e-03  -1.115927e-02  0 
 6.108497e-03  -1.121741e-02  0 
 6.810879e-03  -1.124747e-02  0 
 3.086306e-03  -1.169849e-02  0 
 3.072301e-03  -1.262716e-02  0 
 3.065337e-03  -1.350181e-02  0 
 3.063112e-03  -1.436480e-02  0 
 3.060952e-03  -1.524854e-02  0 
 7.519949e-03  -1.199575e-02  0 
 7.596903e-03  -1.277580e-02  0 
 7.659878e-03  -1.356760e-02  0 
 7.705697e-03  -1.439382e-02  0 
 7.730301e-03  -1.527163e-02  0 
 3.876918e-03  -1.606516e-02  0 
 4.662401e-03  -1.596812e-02  0 
 5.426924e-03  -1.593679e-02  0 
 6.175421e-03  -1.596390e-02  0 
 6.934599e-03  -1.606621e-02  0 
 5.795468e-03  -1.328126e-02  0 
 4.506265e-03  -1.430097e-02  0 
 4.361521e-03  -1.247411e-02  0 
 3.877765e-03  -1.477334e-02  0 
 5.805560e-03  -1.245501e-02  0 
 6.474736e-03  -1.364191e-02  0 
 5.263559e-03  -1.523498e-02  0 
 4.404830e-03  -1.340649e-02  0 
 5.064647e-03  -1.289676e-02  0 
 5.147551e-03  -1.378314e-02  0 
 6.370517e-03  -1.178448e-02  0 
 5.863040e-03  -1.439077e-02  0 
 3.764811e-03  -1.382952e-02  0 
 6.617028e-03  -1.433376e-02  0 
 6.966792e-03  -1.321518e-02  0 
 4.204726e-03  -1.163756e-02  0 
 3.730134e-03  -1.298359e-02  0 
 5.511638e-03  -1.168802e-02  0 
 7.127422e-03  -1.392164e-02  0 
 4.924656e-03  -1.203206e-02  0 
 3.700617e-03  -1.210105e-02  0 
 7.082168e-03  -1.476678e-02  0 
 3.800100e-03  -1.553622e-02  0 
 7.119478e-03  -1.552550e-02  0 
 4.461380e-03  -1.520575e-02  0 
 3.659644e-03  -1.134075e-02  0 
 6.518499e-03  -1.519843e-02  0 
 6.687278e-03  -1.243933e-02  0 
 5.883848e-03  -1.531568e-02  0 
 6.341672e-03  -1.299646e-02  0 
 5.116434e-03  -1.456542e-02  0 
 7.050734e-03  -1.186395e-02  0 
VECTORS displacement_ITER2 FLOAT
 1.866008e-03  -7.866762e-03  0 
 5.209204e-03  -8.709537e-03  0 
 1.916403e-03  -1.282379e-02  0 
 5.619439e-03  -1.291037e-02  0 
 2.501492e-03  -8.306205e-03  0 
 3.130089e-03  -8.511111e-03  0 
 3.705883e-03  -8.619054e-03  0 
 4.292621e-03  -8.695933e-03  0 
 4.832348e-03  -8.742161e-03  0 
 1.821694e-03  -8.990289e-03  0 
 1.835530e-03  -9.792172e-03  0 
 1.847473e-03  -1.051947e-02  0 
 1.857898e-03  -1.122641e-02  0 
 1.869572e-03  -1.195272e-02  0 
 5.367638e-03  -9.343489e-03  0 
 5.470223e-03  -9.953716e-03  0 
 5.545481e-03  -1.059024e-02  0 
 5.602246e-03  -1.126131e-02  0 
 5.631863e-03  -1.198963e-02  0 
 2.531640e-03  -1.261886e-02  0 
 3.146972e-03  -1.252319e-02  0 
 3.756502e-03  -1.249847e-02  0 
 4.365588e-03  -1.252608e-02  0 
 4.985788e-03  -1.264197e-02  0 
 4.058141e-03  -1.033645e-02  0 
 3.032725e-03  -1.118434e-02  0 
 2.919663e-03  -9.667735e-03  0 
 2.530930e-03  -1.157254e-02  0 
 4.068018e-03  -9.667401e-03  0 
 4.592587e-03  -1.063076e-02  0 
 3.627704e-03  -1.193244e-02  0 
 2.951183e-03  -1.044577e-02  0 
 3.483983e-03  -1.002191e-02  0 
 3.545809e-03  -1.075265e-02  0 
 4.502989e-03  -9.143907e-03  0 
 4.107081e-03  -1.124476e-02  0 
 2.428829e-03  -1.079521e-02  0 
 4.709082e-03  -1.120295e-02  0 
 4.982033e-03  -1.028816e-02  0 
 2.792226e-03  -8.960110e-03  0 
 2.396260e-03  -1.009599e-02  0 
 3.830000e-03  -9.047457e-03  0 
 5.120610e-03  -1.086581e-02  0 
 3.371681e-03  -9.308126e-03  0 
 2.372275e-03  -9.349907e-03  0 
 5.086304e-03  -1.156435e-02  0 
 2.479194e-03  -1.220222e-02  0 
 5.115383e-03  -1.220716e-02  0 
 2.996562e-03  -1.192300e-02  0 
 2.338404e-03  -8.675437e-03  0 
 4.631131e-03  -1.191466e-02  0 
 4.746000e-03  -9.656407e-03  0 
 4.126272e-03  -1.199863e-02  0 
 4.483841e-03  -1.010333e-02  0 
 3.516970e-03  -1.139405e-02  0 
 5.010036e-03  -9.205812e-03  0 
VECTORS displacement_ITER3 FLOAT
 1.351450e-03  -6.967284e-03  0 
 4.258465e-03  -7.805281e-03  0 
 1.452904e-03  -1.144329e-02  0 
 4.705762e-03  -1.163297e-02  0 
 1.922991e-03  -7.434122e-03  0 
 2.479232e-03  -7.625120e-03  0 
 2.990736e-03  -7.729411e-03  0 
 3.499426e-03  -7.801184e-03  0 
 3.969558e-03  -7.833070e-03  0 
 1.314600e-03  -8.043961e-03  0 
 1.331570e-03  -8.779752e-03  0 
 1.345710e-03  -9.431717e-03  0 
 1.360859e-03  -1.005703e-02  0 
 1.386947e-03  -1.069255e-02  0 
 4.431136e-03  -8.365809e-03  0 
 4.543051e-03  -8.906143e-03  0 
 4.614712e-03  -9.484318e-03  0 
 4.671352e-03  -1.009081e-02  0 
 4.707978e-03  -1.075837e-02  0 
 1.948355e-03  -1.126702e-02  0 
 2.486943e-03  -1.119555e-02  0 
 3.025732e-03  -1.118015e-02  0 
 3.561628e-03  -1.122011e-02  0 
 4.122593e-03  -1.134194e-02  0 
 3.290078e-03  -9.250428e-03  0 
 2.389660e-03  -1.001743e-02  0 
 2.299178e-03  -8.659853e-03  0 
 1.951183e-03  -1.036628e-02  0 
 3.303240e-03  -8.653697e-03  0 
 3.759485e-03  -9.513367e-03  0 
 2.908686e-03  -1.067837e-02  0 
 2.322163e-03  -9.358887e-03  0 
 2.791202e-03  -8.974674e-03  0 
 2.840171e-03  -9.627467e-03  0 
 3.681537e-03  -8.188317e-03  0 
 3.329114e-03  -1.006639e-02  0 
 1.860767e-03  -9.675795e-03  0 
 3.864522e-03  -1.003197e-02  0 
 4.105339e-03  -9.206889e-03  0 
 2.186754e-03  -8.020219e-03  0 
 1.834115e-03  -9.050013e-03  0 
 3.099576e-03  -8.107959e-03  0 
 4.233004e-03  -9.729014e-03  0 
 2.696096e-03  -8.338508e-03  0 
 1.817619e-03  -8.373095e-03  0 
 4.203240e-03  -1.036149e-02  0 
 1.909112e-03  -1.091707e-02  0 
 4.230893e-03  -1.095335e-02  0 
 2.353409e-03  -1.066924e-02  0 
 1.791991e-03  -7.751089e-03  0 
 3.795115e-03  -1.067500e-02  0 
 3.890097e-03  -8.635768e-03  0 
 3.347727e-03  -1.074371e-02  0 
 3.662500e-03  -9.037998e-03  0 
 2.812194e-03  -1.019934e-02  0 
 4.119497e-03  -8.229362e-03  0 
VECTORS displacement_ITER4 FLOAT
 1.069498e-03  -7.062836e-03  0 
 3.435510e-03  -7.916901e-03  0 
 1.200765e-03  -1.099876e-02  0 
 3.921125e-03  -1.123032e-02  0 
 1.570320e-03  -7.536144e-03  0 
 2.039211e-03  -7.729092e-03  0 
 2.463260e-03  -7.829967e-03  0 
 2.889663e-03  -7.897975e-03  0 
 3.266358e-03  -7.937059e-03  0 
 1.038293e-03  -8.062353e-03  0 
 1.060007e-03  -8.709948e-03  0 
 1.077363e-03  -9.273596e-03  0 
 1.097225e-03  -9.810021e-03  0 
 1.128560e-03  -1.035070e-02  0 
 3.627766e-03  -8.379563e-03  0 
 3.750292e-03  -8.822013e-03  0 
 3.821676e-03  -9.316402e-03  0 
 3.880801e-03  -9.839148e-03  0 
 3.922875e-03  -1.042929e-02  0 
 1.594317e-03  -1.083357e-02  0 
 2.042840e-03  -1.077082e-02  0 
 2.493520e-03  -1.075863e-02  0 
 2.942275e-03  -1.080053e-02  0 
 3.420200e-03  -1.092696e-02  0 
 2.713231e-03  -9.112050e-03  0 
 1.966020e-03  -9.776111e-03  0 
 1.896178e-03  -8.606090e-03  0 
 1.599321e-03  -1.007709e-02  0 
 2.727288e-03  -8.607522e-03  0 
 3.099640e-03  -9.335697e-03  0 
 2.394391e-03  -1.033381e-02  0 
 1.911914e-03  -9.210990e-03  0 
 2.304903e-03  -8.878949e-03  0 
 2.341547e-03  -9.438370e-03  0 
 3.039178e-03  -8.217714e-03  0 
 2.741968e-03  -9.812389e-03  0 
 1.520511e-03  -9.485636e-03  0 
 3.188792e-03  -9.785099e-03  0 
 3.388559e-03  -9.073193e-03  0 
 1.802695e-03  -8.049171e-03  0 
 1.497785e-03  -8.945649e-03  0 
 2.557737e-03  -8.148943e-03  0 
 3.500414e-03  -9.522457e-03  0 
 2.226284e-03  -8.334636e-03  0 
 1.486755e-03  -8.355133e-03  0 
 3.475838e-03  -1.007282e-02  0 
 1.567730e-03  -1.054710e-02  0 
 3.500561e-03  -1.059948e-02  0 
 1.933458e-03  -1.033065e-02  0 
 1.468600e-03  -7.799089e-03  0 
 3.130988e-03  -1.034190e-02  0 
 3.202331e-03  -8.582930e-03  0 
 2.760363e-03  -1.039270e-02  0 
 3.017757e-03  -8.927728e-03  0 
 2.316085e-03  -9.927384e-03  0 
 3.379668e-03  -8.242044e-03  0 
VECTORS displacement_ITER5 FLOAT
 9.265209e-04  -7.037820e-03  0 
 3.107028e-03  -7.869352e-03  0 
 1.060768e-03  -1.076674e-02  0 
 3.623681e-03  -1.104979e-02  0 
 1.392013e-03  -7.497930e-03  0 
 1.831953e-03  -7.691037e-03  0 
 2.227538e-03  -7.789134e-03  0 
 2.625374e-03  -7.855085e-03  0 
 2.972715e-03  -7.892835e-03  0 
 8.910009e-04  -7.994692e-03  0 
 9.124962e-04  -8.612022e-03  0 
 9.300115e-04  -9.146993e-03  0 
 9.520655e-04  -9.654616e-03  0 
 9.852036e-04  -1.016209e-02  0 
 3.305618e-03  -8.308337e-03  0 
 3.432638e-03  -8.721339e-03  0 
 3.506808e-03  -9.190151e-03  0 
 3.570451e-03  -9.688269e-03  0 
 3.619097e-03  -1.026081e-02  0 
 1.416930e-03  -1.061177e-02  0 
 1.833167e-03  -1.055542e-02  0 
 2.254716e-03  -1.054955e-02  0 
 2.678152e-03  -1.059892e-02  0 
 3.134706e-03  -1.073523e-02  0 
 2.459786e-03  -8.991692e-03  0 
 1.763096e-03  -9.622592e-03  0 
 1.701078e-03  -8.514708e-03  0 
 1.421702e-03  -9.907019e-03  0 
 2.474478e-03  -8.516663e-03  0 
 2.821523e-03  -9.203128e-03  0 
 2.160403e-03  -1.014828e-02  0 
 1.714215e-03  -9.088363e-03  0 
 2.081115e-03  -8.773269e-03  0 
 2.113049e-03  -9.302199e-03  0 
 2.764368e-03  -8.151341e-03  0 
 2.484830e-03  -9.656442e-03  0 
 1.347649e-03  -9.349110e-03  0 
 2.906939e-03  -9.632573e-03  0 
 3.093792e-03  -8.955085e-03  0 
 1.613932e-03  -7.986225e-03  0 
 1.326469e-03  -8.836816e-03  0 
 2.316705e-03  -8.087683e-03  0 
 3.203022e-03  -9.382482e-03  0 
 2.008539e-03  -8.259694e-03  0 
 1.317120e-03  -8.275092e-03  0 
 3.181511e-03  -9.909752e-03  0 
 1.393630e-03  -1.034786e-02  0 
 3.207912e-03  -1.042157e-02  0 
 1.731583e-03  -1.014446e-02  0 
 1.300670e-03  -7.742773e-03  0 
 2.852475e-03  -1.016555e-02  0 
 2.914161e-03  -8.489794e-03  0 
 2.503984e-03  -1.020809e-02  0 
 2.743566e-03  -8.815951e-03  0 
 2.088209e-03  -9.764660e-03  0 
 3.074769e-03  -8.169744e-03  0 
VECTORS displacement_ITER6 FLOAT
 8.267075e-04  -7.096931e-03  0 
 2.898679e-03  -7.910016e-03  0 
 9.405125e-04  -1.072660e-02  0 
 3.429521e-03  -1.103210e-02  0 
 1.268226e-03  -7.548924e-03  0 
 1.690097e-03  -7.740156e-03  0 
 2.070541e-03  -7.834234e-03  0 
 2.454264e-03  -7.896319e-03  0 
 2.787203e-03  -7.933646e-03  0 
 7.851620e-04  -8.029866e-03  0 
 8.025802e-04  -8.630456e-03  0 
 8.167712e-04  -9.149362e-03  0 
 8.366080e-04  -9.642816e-03  0 
 8.669003e-04  -1.013699e-02  0 
 3.102465e-03  -8.332879e-03  0 
 3.232860e-03  -8.732917e-03  0 
 3.307740e-03  -9.190329e-03  0 
 3.372800e-03  -9.676767e-03  0 
 3.423307e-03  -1.024021e-02  0 
 1.284681e-03  -1.057094e-02  0 
 1.688299e-03  -1.051415e-02  0 
 2.096873e-03  -1.050937e-02  0 
 2.506708e-03  -1.056086e-02  0 
 2.947887e-03  -1.070392e-02  0 
 2.292335e-03  -8.995752e-03  0 
 1.622140e-03  -9.609304e-03  0 
 1.565150e-03  -8.533136e-03  0 
 1.291872e-03  -9.886589e-03  0 
 2.307441e-03  -8.535728e-03  0 
 2.640766e-03  -9.201574e-03  0 
 2.004703e-03  -1.011954e-02  0 
 1.576169e-03  -9.090407e-03  0 
 1.929437e-03  -8.784371e-03  0 
 1.959078e-03  -9.297924e-03  0 
 2.587523e-03  -8.181215e-03  0 
 2.315837e-03  -9.643492e-03  0 
 1.221406e-03  -9.344547e-03  0 
 2.723858e-03  -9.621579e-03  0 
 2.904860e-03  -8.959627e-03  0 
 1.482591e-03  -8.021037e-03  0 
 1.202659e-03  -8.846726e-03  0 
 2.156048e-03  -8.121830e-03  0 
 3.012136e-03  -9.376806e-03  0 
 1.860134e-03  -8.287118e-03  0 
 1.196583e-03  -8.300876e-03  0 
 2.990921e-03  -9.893435e-03  0 
 1.263742e-03  -1.031612e-02  0 
 3.016010e-03  -1.039880e-02  0 
 1.590896e-03  -1.011618e-02  0 
 1.183178e-03  -7.782485e-03  0 
 2.670887e-03  -1.014350e-02  0 
 2.729092e-03  -8.505659e-03  0 
 2.336520e-03  -1.018014e-02  0 
 2.565032e-03  -8.824040e-03  0 
 1.935157e-03  -9.747183e-03  0 
 2.881889e-03  -8.193908e-03  0 
VECTORS displacement_ITER7 FLOAT
 8.223395e-04  -7.113239e-03  0 
 2.813855e-03  -7.907237e-03  0 
 9.261802e-04  -1.066150e-02  0 
 3.355168e-03  -1.098650e-02  0 
 1.246266e-03  -7.561544e-03  0 
 1.653438e-03  -7.750060e-03  0 
 2.021525e-03  -7.842669e-03  0 
 2.392801e-03  -7.902692e-03  0 
 2.715256e-03  -7.937057e-03  0 
 7.770922e-04  -8.029452e-03  0 
 7.923208e-04  -8.617065e-03  0 
 8.052457e-04  -9.122577e-03  0 
 8.244000e-04  -9.602461e-03  0 
 8.537573e-04  -1.008386e-02  0 
 3.019514e-03  -8.326677e-03  0 
 3.150542e-03  -8.716997e-03  0 
 3.226605e-03  -9.164532e-03  0 
 3.293173e-03  -9.640974e-03  0 
 3.345366e-03  -1.019625e-02  0 
 1.260116e-03  -1.050716e-02  0 
 1.651466e-03  -1.045052e-02  0 
 2.047989e-03  -1.044825e-02  0 
 2.446026e-03  -1.050386e-02  0 
 2.878360e-03  -1.065079e-02  0 
 2.235750e-03  -8.971065e-03  0 
 1.587323e-03  -9.570147e-03  0 
 1.533799e-03  -8.519924e-03  0 
 1.267186e-03  -9.840154e-03  0 
 2.250815e-03  -8.522927e-03  0 
 2.574062e-03  -9.172646e-03  0 
 1.957490e-03  -1.006828e-02  0 
 1.543300e-03  -9.063897e-03  0 
 1.885400e-03  -8.765160e-03  0 
 1.913334e-03  -9.266421e-03  0 
 2.521658e-03  -8.178156e-03  0 
 2.258191e-03  -9.604864e-03  0 
 1.198675e-03  -9.312108e-03  0 
 2.655789e-03  -9.584845e-03  0 
 2.831360e-03  -8.936677e-03  0 
 1.454500e-03  -8.020420e-03  0 
 1.181437e-03  -8.826744e-03  0 
 2.104475e-03  -8.121329e-03  0 
 2.937732e-03  -9.345369e-03  0 
 1.818692e-03  -8.280964e-03  0 
 1.177549e-03  -8.293374e-03  0 
 2.917617e-03  -9.852613e-03  0 
 1.240343e-03  -1.025931e-02  0 
 2.942857e-03  -1.035152e-02  0 
 1.557307e-03  -1.006417e-02  0 
 1.166459e-03  -7.785725e-03  0 
 2.604372e-03  -1.009687e-02  0 
 2.657788e-03  -8.491966e-03  0 
 2.279347e-03  -1.012991e-02  0 
 2.499641e-03  -8.803066e-03  0 
 1.890183e-03  -9.705081e-03  0 
 2.804252e-03  -8.187333e-03  0 
VECTORS displacement_ITER8 FLOAT
 7.874293e-04  -7.098586e-03  0 
 2.787283e-03  -7.883494e-03  0 
 8.800970e-04  -1.066594e-02  0 
 3.332803e-03  -1.099611e-02  0 
 1.208362e-03  -7.544559e-03  0 
 1.617215e-03  -7.731403e-03  0 
 1.987867e-03  -7.823709e-03  0 
 2.362174e-03  -7.883111e-03  0 
 2.687474e-03  -7.916963e-03  0 
 7.384983e-04  -8.014202e-03  0 
 7.514535e-04  -8.604392e-03  0 
 7.631264e-04  -9.113898e-03  0 
 7.811354e-04  -9.597237e-03  0 
 8.094667e-04  -1.008213e-02  0 
 2.994598e-03  -8.309487e-03  0 
 3.126102e-03  -8.704001e-03  0 
 3.202678e-03  -9.154681e-03  0 
 3.270097e-03  -9.635096e-03  0 
 3.322910e-03  -1.019533e-02  0 
 1.220105e-03  -1.050898e-02  0 
 1.614317e-03  -1.045098e-02  0 
 2.013816e-03  -1.044873e-02  0 
 2.415269e-03  -1.050502e-02  0 
 2.851745e-03  -1.065414e-02  0 
 2.203119e-03  -8.959985e-03  0 
 1.550012e-03  -9.563515e-03  0 
 1.496513e-03  -8.506049e-03  0 
 1.227273e-03  -9.835698e-03  0 
 2.218414e-03  -8.508578e-03  0 
 2.544270e-03  -9.163140e-03  0 
 1.922743e-03  -1.006571e-02  0 
 1.505926e-03  -9.053534e-03  0 
 1.850240e-03  -8.752793e-03  0 
 1.878318e-03  -9.257580e-03  0 
 2.491814e-03  -8.160645e-03  0 
 2.225738e-03  -9.598800e-03  0 
 1.158887e-03  -9.303811e-03  0 
 2.626643e-03  -9.578689e-03  0 
 2.804010e-03  -8.925212e-03  0 
 1.416771e-03  -8.004031e-03  0 
 1.142277e-03  -8.814924e-03  0 
 2.071166e-03  -8.104228e-03  0 
 2.911216e-03  -9.337029e-03  0 
 1.783180e-03  -8.265516e-03  0 
 1.138937e-03  -8.278164e-03  0 
 2.890752e-03  -9.848713e-03  0 
 1.199911e-03  -1.025821e-02  0 
 2.916004e-03  -1.035267e-02  0 
 1.519744e-03  -1.006159e-02  0 
 1.128517e-03  -7.768968e-03  0 
 2.574730e-03  -1.009504e-02  0 
 2.628729e-03  -8.476635e-03  0 
 2.247139e-03  -1.012798e-02  0 
 2.469162e-03  -8.790511e-03  0 
 1.855024e-03  -9.699672e-03  0 
 2.776451e-03  -8.169081e-03  0 
VECTORS displacement_ITER9 FLOAT
 7.558150e-04  -7.063001e-03  0 
 2.776069e-03  -7.841639e-03  0 
 8.389297e-04  -1.066003e-02  0 
 3.323146e-03  -1.098747e-02  0 
 1.176569e-03  -7.508973e-03  0 
 1.589194e-03  -7.694693e-03  0 
 1.963613e-03  -7.786111e-03  0 
 2.342334e-03  -7.844404e-03  0 
 2.671745e-03  -7.877229e-03  0 
 7.041484e-04  -7.982786e-03  0 
 7.149788e-04  -8.576343e-03  0 
 7.252262e-04  -9.090086e-03  0 
 7.418629e-04  -9.578606e-03  0 
 7.696555e-04  -1.006896e-02  0 
 2.984531e-03  -8.274776e-03  0 
 3.115874e-03  -8.675943e-03  0 
 3.192144e-03  -9.131480e-03  0 
 3.259510e-03  -9.617339e-03  0 
 3.312751e-03  -1.018177e-02  0 
 1.185720e-03  -1.050182e-02  0 
 1.585920e-03  -1.044290e-02  0 
 1.990597e-03  -1.043984e-02  0 
 2.396208e-03  -1.049567e-02  0 
 2.836592e-03  -1.064495e-02  0 
 2.181044e-03  -8.934457e-03  0 
 1.520364e-03  -9.543625e-03  0 
 1.466232e-03  -8.476002e-03  0 
 1.193267e-03  -9.819039e-03  0 
 2.196099e-03  -8.478037e-03  0 
 2.526596e-03  -9.140373e-03  0 
 1.898390e-03  -1.005222e-02  0 
 1.475709e-03  -9.028314e-03  0 
 1.823770e-03  -8.724816e-03  0 
 1.852567e-03  -9.234718e-03  0 
 2.473122e-03  -8.125294e-03  0 
 2.204727e-03  -9.580183e-03  0 
 1.124756e-03  -9.281168e-03  0 
 2.610021e-03  -9.559926e-03  0 
 2.789320e-03  -8.900042e-03  0 
 1.386013e-03  -7.970535e-03  0 
 1.108589e-03  -8.787693e-03  0 
 2.047311e-03  -8.069335e-03  0 
 2.897406e-03  -9.316190e-03  0 
 1.755992e-03  -8.233053e-03  0 
 1.105946e-03  -8.246838e-03  0 
 2.876972e-03  -9.832477e-03  0 
 1.164981e-03  -1.024665e-02  0 
 2.902433e-03  -1.034016e-02  0 
 1.489803e-03  -1.004772e-02  0 
 1.096313e-03  -7.734776e-03  0 
 2.557686e-03  -1.008128e-02  0 
 2.611967e-03  -8.445754e-03  0 
 2.226480e-03  -1.011501e-02  0 
 2.450298e-03  -8.763463e-03  0 
 1.829405e-03  -9.681699e-03  0 
 2.762187e-03  -8.133737e-03  0 
VECTORS displacement_ITER10 FLOAT
 7.595344e-04  -7.048668e-03  0 
 2.775956e-03  -7.830148e-03  0 
 8.410846e-04  -1.065188e-02  0 
 3.323287e-03  -1.097271e-02  0 
 1.178259e-03  -7.496375e-03  0 
 1.591122e-03  -7.682886e-03  0 
 1.965108e-03  -7.774996e-03  0 
 2.343244e-03  -7.833974e-03  0 
 2.672137e-03  -7.866553e-03  0 
 7.066918e-04  -7.969829e-03  0 
 7.173835e-04  -8.563479e-03  0 
 7.278407e-04  -9.077612e-03  0 
 7.444246e-04  -9.566857e-03  0 
 7.722355e-04  -1.005781e-02  0 
 2.984734e-03  -8.264049e-03  0 
 3.115945e-03  -8.665208e-03  0 
 3.192198e-03  -9.119532e-03  0 
 3.259670e-03  -9.604699e-03  0 
 3.312987e-03  -1.016870e-02  0 
 1.188702e-03  -1.049107e-02  0 
 1.588177e-03  -1.043103e-02  0 
 1.992088e-03  -1.042711e-02  0 
 2.397643e-03  -1.048228e-02  0 
 2.837768e-03  -1.063138e-02  0 
 2.182976e-03  -8.922509e-03  0 
 1.523236e-03  -9.531779e-03  0 
 1.468856e-03  -8.463591e-03  0 
 1.196340e-03  -9.807499e-03  0 
 2.197809e-03  -8.466429e-03  0 
 2.527963e-03  -9.128335e-03  0 
 1.900486e-03  -1.003992e-02  0 
 1.478500e-03  -9.016127e-03  0 
 1.826198e-03  -8.712754e-03  0 
 1.855101e-03  -9.222652e-03  0 
 2.473940e-03  -8.114418e-03  0 
 2.206692e-03  -9.567738e-03  0 
 1.127665e-03  -9.269018e-03  0 
 2.611267e-03  -9.547390e-03  0 
 2.790148e-03  -8.888480e-03  0 
 1.388342e-03  -7.957970e-03  0 
 1.111362e-03  -8.775189e-03  0 
 2.048989e-03  -8.058023e-03  0 
 2.898129e-03  -9.303932e-03  0 
 1.758227e-03  -8.221100e-03  0 
 1.108640e-03  -8.233895e-03  0 
 2.877833e-03  -9.819616e-03  0 
 1.168253e-03  -1.023572e-02  0 
 2.903479e-03  -1.032681e-02  0 
 1.492668e-03  -1.003620e-02  0 
 1.099111e-03  -7.721195e-03  0 
 2.559034e-03  -1.006810e-02  0 
 2.612669e-03  -8.434551e-03  0 
 2.228172e-03  -1.010209e-02  0 
 2.451609e-03  -8.751760e-03  0 
 1.831868e-03  -9.669673e-03  0 
 2.762332e-03  -8.122880e-03  0 
VECTORS displacement_ITER11 FLOAT
 7.545114e-04  -7.037598e-03  0 
 2.777569e-03  -7.822529e-03  0 
 8.343207e-04  -1.065665e-02  0 
 3.324585e-03  -1.096919e-02  0 
 1.174462e-03  -7.486897e-03  0 
 1.588491e-03  -7.674012e-03  0 
 1.963872e-03  -7.766722e-03  0 
 2.342792e-03  -7.826297e-03  0 
 2.672739e-03  -7.858809e-03  0 
 7.014275e-04  -7.961526e-03  0 
 7.121067e-04  -8.557007e-03  0 
 7.224448e-04  -9.073382e-03  0 
 7.386602e-04  -9.565067e-03  0 
 7.657637e-04  -1.005890e-02  0 
 2.986513e-03  -8.257712e-03  0 
 3.117990e-03  -8.660222e-03  0 
 3.194508e-03  -9.115780e-03  0 
 3.261823e-03  -9.601853e-03  0 
 3.314723e-03  -1.016655e-02  0 
 1.184205e-03  -1.049369e-02  0 
 1.585915e-03  -1.043204e-02  0 
 1.991243e-03  -1.042703e-02  0 
 2.397962e-03  -1.048157e-02  0 
 2.839030e-03  -1.062968e-02  0 
 2.182849e-03  -8.917850e-03  0 
 1.521038e-03  -9.529109e-03  0 
 1.466231e-03  -8.457083e-03  0 
 1.192634e-03  -9.806279e-03  0 
 2.197484e-03  -8.460362e-03  0 
 2.528775e-03  -9.124387e-03  0 
 1.899624e-03  -1.003880e-02  0 
 1.476074e-03  -9.011492e-03  0 
 1.824873e-03  -8.707227e-03  0 
 1.854096e-03  -9.218785e-03  0 
 2.474007e-03  -8.107575e-03  0 
 2.206885e-03  -9.564839e-03  0 
 1.123876e-03  -9.265414e-03  0 
 2.612381e-03  -9.544448e-03  0 
 2.791437e-03  -8.884032e-03  0 
 1.385242e-03  -7.949775e-03  0 
 1.107553e-03  -8.769614e-03  0 
 2.048092e-03  -8.050648e-03  0 
 2.899764e-03  -9.300589e-03  0 
 1.756460e-03  -8.214031e-03  0 
 1.104701e-03  -8.226439e-03  0 
 2.879479e-03  -9.817208e-03  0 
 1.163980e-03  -1.023702e-02  0 
 2.905220e-03  -1.032464e-02  0 
 1.490283e-03  -1.003567e-02  0 
 1.095126e-03  -7.712193e-03  0 
 2.560178e-03  -1.006606e-02  0 
 2.613398e-03  -8.428859e-03  0 
 2.228233e-03  -1.010066e-02  0 
 2.452105e-03  -8.746781e-03  0 
 1.830823e-03  -9.667355e-03  0 
 2.763458e-03  -8.116327e-03  0 
VECTORS displacement_ITER12 FLOAT
 7.541524e-04  -7.034185e-03  0 
 2.777773e-03  -7.822529e-03  0 
 8.342260e-04  -1.065904e-02  0 
 3.324688e-03  -1.096551e-02  0 
 1.174909e-03  -7.484603e-03  0 
 1.589318e-03  -7.672058e-03  0 
 1.964881e-03  -7.764995e-03  0 
 2.343883e-03  -7.824933e-03  0 
 2.673499e-03  -7.858131e-03  0 
 7.013446e-04  -7.959690e-03  0 
 7.122595e-04  -8.555754e-03  0 
 7.226908e-04  -9.072280e-03  0 
 7.389018e-04  -9.564151e-03  0 
 7.658038e-04  -1.005933e-02  0 
 2.986934e-03  -8.256977e-03  0 
 3.118730e-03  -8.659057e-03  0 
 3.195449e-03  -9.114625e-03  0 
 3.262571e-03  -9.600459e-03  0 
 3.315040e-03  -1.016450e-02  0 
 1.184678e-03  -1.049428e-02  0 
 1.586977e-03  -1.043173e-02  0 
 1.992492e-03  -1.042612e-02  0 
 2.399085e-03  -1.048008e-02  0 
 2.839848e-03  -1.062725e-02  0 
 2.184218e-03  -8.916702e-03  0 
 1.522208e-03  -9.528346e-03  0 
 1.467125e-03  -8.455622e-03  0 
 1.193584e-03  -9.805809e-03  0 
 2.198783e-03  -8.459102e-03  0 
 2.530022e-03  -9.123192e-03  0 
 1.900956e-03  -1.003794e-02  0 
 1.477065e-03  -9.010362e-03  0 
 1.826096e-03  -8.705953e-03  0 
 1.855446e-03  -9.217758e-03  0 
 2.475190e-03  -8.106390e-03  0 
 2.208305e-03  -9.563692e-03  0 
 1.124546e-03  -9.264396e-03  0 
 2.613626e-03  -9.543189e-03  0 
 2.792506e-03  -8.882805e-03  0 
 1.386006e-03  -7.947944e-03  0 
 1.108116e-03  -8.768375e-03  0 
 2.049232e-03  -8.049146e-03  0 
 2.900829e-03  -9.299403e-03  0 
 1.757529e-03  -8.212478e-03  0 
 1.105226e-03  -8.224869e-03  0 
 2.880534e-03  -9.815766e-03  0 
 1.164779e-03  -1.023745e-02  0 
 2.906158e-03  -1.032248e-02  0 
 1.491464e-03  -1.003524e-02  0 
 1.095584e-03  -7.710067e-03  0 
 2.561490e-03  -1.006452e-02  0 
 2.614549e-03  -8.427704e-03  0 
 2.229544e-03  -1.009948e-02  0 
 2.453368e-03  -8.745606e-03  0 
 1.832171e-03  -9.666484e-03  0 
 2.764310e-03  -8.115439e-03  0 
VECTORS displacement_ITER13 FLOAT
 7.469244e-04  -7.035151e-03  0 
 2.775033e-03  -7.826927e-03  0 
 8.282135e-04  -1.066799e-02  0 
 3.323327e-03  -1.097070e-02  0 
 1.169687e-03  -7.486140e-03  0 
 1.585310e-03  -7.674196e-03  0 
 1.961572e-03  -7.767579e-03  0 
 2.341330e-03  -7.827989e-03  0 
 2.671132e-03  -7.861877e-03  0 
 6.948151e-04  -7.962223e-03  0 
 7.061782e-04  -8.559559e-03  0 
 7.167834e-04  -9.077170e-03  0 
 7.330708e-04  -9.569897e-03  0 
 7.598037e-04  -1.006638e-02  0 
 2.984610e-03  -8.260951e-03  0 
 3.116810e-03  -8.662957e-03  0 
 3.193839e-03  -9.119042e-03  0 
 3.261151e-03  -9.605424e-03  0 
 3.313663e-03  -1.016981e-02  0 
 1.179626e-03  -1.050200e-02  0 
 1.582594e-03  -1.043887e-02  0 
 1.988806e-03  -1.043295e-02  0 
 2.396225e-03  -1.048654e-02  0 
 2.837912e-03  -1.063335e-02  0 
 2.181446e-03  -8.921075e-03  0 
 1.517997e-03  -9.534035e-03  0 
 1.462749e-03  -8.459465e-03  0 
 1.188735e-03  -9.812059e-03  0 
 2.196090e-03  -8.462869e-03  0 
 2.527735e-03  -9.127603e-03  0 
 1.897284e-03  -1.004416e-02  0 
 1.472758e-03  -9.015148e-03  0 
 1.822610e-03  -8.710148e-03  0 
 1.851985e-03  -9.222743e-03  0 
 2.472896e-03  -8.109848e-03  0 
 2.205456e-03  -9.568829e-03  0 
 1.119482e-03  -9.269645e-03  0 
 2.611458e-03  -9.548064e-03  0 
 2.790484e-03  -8.886888e-03  0 
 1.381381e-03  -7.950790e-03  0 
 1.102937e-03  -8.772740e-03  0 
 2.046204e-03  -8.052265e-03  0 
 2.898990e-03  -9.303987e-03  0 
 1.753904e-03  -8.215814e-03  0 
 1.099817e-03  -8.228260e-03  0 
 2.878803e-03  -9.820886e-03  0 
 1.159829e-03  -1.024472e-02  0 
 2.904544e-03  -1.032796e-02  0 
 1.487131e-03  -1.004184e-02  0 
 1.089835e-03  -7.712485e-03  0 
 2.559226e-03  -1.007001e-02  0 
 2.612403e-03  -8.431454e-03  0 
 2.226515e-03  -1.010545e-02  0 
 2.451026e-03  -8.749667e-03  0 
 1.828529e-03  -9.672199e-03  0 
 2.762128e-03  -8.119150e-03  0 
VECTORS displacement_ITER14 FLOAT
 7.465162e-04  -7.036955e-03  0 
 2.772092e-03  -7.830884e-03  0 
 8.293538e-04  -1.066909e-02  0 
 3.321460e-03  -1.096899e-02  0 
 1.170243e-03  -7.488171e-03  0 
 1.585519e-03  -7.676527e-03  0 
 1.961316e-03  -7.770228e-03  0 
 2.340551e-03  -7.830897e-03  0 
 2.669705e-03  -7.865085e-03  0 
 6.952848e-04  -7.964098e-03  0 
 7.069567e-04  -8.561074e-03  0 
 7.176033e-04  -9.078205e-03  0 
 7.339120e-04  -9.570577e-03  0 
 7.607024e-04  -1.006696e-02  0 
 2.982111e-03  -8.263422e-03  0 
 3.114675e-03  -8.664483e-03  0 
 3.191763e-03  -9.119957e-03  0 
 3.259153e-03  -9.605679e-03  0 
 3.311758e-03  -1.016923e-02  0 
 1.180174e-03  -1.050219e-02  0 
 1.582733e-03  -1.043875e-02  0 
 1.988534e-03  -1.043253e-02  0 
 2.395466e-03  -1.048573e-02  0 
 2.836535e-03  -1.063225e-02  0 
 2.181088e-03  -8.922262e-03  0 
 1.518407e-03  -9.534838e-03  0 
 1.463128e-03  -8.461151e-03  0 
 1.189465e-03  -9.812738e-03  0 
 2.195723e-03  -8.464648e-03  0 
 2.526798e-03  -9.128433e-03  0 
 1.897185e-03  -1.004420e-02  0 
 1.473159e-03  -9.016355e-03  0 
 1.822719e-03  -8.711615e-03  0 
 1.852066e-03  -9.223707e-03  0 
 2.471991e-03  -8.112289e-03  0 
 2.205027e-03  -9.569223e-03  0 
 1.120127e-03  -9.270608e-03  0 
 2.610421e-03  -9.548352e-03  0 
 2.789045e-03  -8.888043e-03  0 
 1.381826e-03  -7.952812e-03  0 
 1.103504e-03  -8.774123e-03  0 
 2.045968e-03  -8.054562e-03  0 
 2.897470e-03  -9.304585e-03  0 
 1.754058e-03  -8.217746e-03  0 
 1.100296e-03  -8.230149e-03  0 
 2.877413e-03  -9.820778e-03  0 
 1.160647e-03  -1.024534e-02  0 
 2.903145e-03  -1.032719e-02  0 
 1.487533e-03  -1.004223e-02  0 
 1.090192e-03  -7.714696e-03  0 
 2.558258e-03  -1.006967e-02  0 
 2.611181e-03  -8.433253e-03  0 
 2.226018e-03  -1.010523e-02  0 
 2.450182e-03  -8.751012e-03  0 
 1.828590e-03  -9.672710e-03  0 
 2.760439e-03  -8.121488e-03  0 
VECTORS displacement_ITER15 FLOAT
 7.428631e-04  -7.038611e-03  0 
 2.768536e-03  -7.833306e-03  0 
 8.275037e-04  -1.067083e-02  0 
 3.319241e-03  -1.096956e-02  0 
 1.167679e-03  -7.489662e-03  0 
 1.583126e-03  -7.678127e-03  0 
 1.958977e-03  -7.771925e-03  0 
 2.338092e-03  -7.832834e-03  0 
 2.667055e-03  -7.867266e-03  0 
 6.923539e-04  -7.965714e-03  0 
 7.043554e-04  -8.562731e-03  0 
 7.151493e-04  -9.079878e-03  0 
 7.315509e-04  -9.572314e-03  0 
 7.584717e-04  -1.006851e-02  0 
 2.978962e-03  -8.265429e-03  0 
 3.111875e-03  -8.666081e-03  0 
 3.189056e-03  -9.121477e-03  0 
 3.256555e-03  -9.607000e-03  0 
 3.309308e-03  -1.017036e-02  0 
 1.177774e-03  -1.050367e-02  0 
 1.580189e-03  -1.044020e-02  0 
 1.985903e-03  -1.043392e-02  0 
 2.392855e-03  -1.048706e-02  0 
 2.834037e-03  -1.063338e-02  0 
 2.178680e-03  -8.923812e-03  0 