# vtk DataFile Version 3.1
this is an vtk file created by FEMAC
ASCII
DATASET UNSTRUCTURED_GRID
POINTS 56 FLOAT
1.000000 3.000000 0.000000
1.000000 4.000000 0.000000
2.000000 3.000000 0.000000
2.000000 4.000000 0.000000
1.000000 3.166667 0.000000
1.000000 3.333333 0.000000
1.000000 3.500000 0.000000
1.000000 3.666667 0.000000
1.000000 3.833333 0.000000
1.166667 3.000000 0.000000
1.333333 3.000000 0.000000
1.500000 3.000000 0.000000
1.666667 3.000000 0.000000
1.833333 3.000000 0.000000
1.166667 4.000000 0.000000
1.333333 4.000000 0.000000
1.500000 4.000000 0.000000
1.666667 4.000000 0.000000
1.833333 4.000000 0.000000
2.000000 3.166667 0.000000
2.000000 3.333333 0.000000
2.000000 3.500000 0.000000
2.000000 3.666667 0.000000
2.000000 3.833333 0.000000
1.547707 3.494753 0.000000
1.264513 3.329888 0.000000
1.830954 3.275883 0.000000
1.282392 3.675739 0.000000
1.736113 3.681668 0.000000
1.137728 3.754960 0.000000
1.531952 3.305262 0.000000
1.568573 3.652295 0.000000
1.837067 3.477502 0.000000
1.402115 3.411024 0.000000
1.269835 3.523521 0.000000
1.415828 3.588071 0.000000
1.693873 3.374408 0.000000
1.606122 3.820333 0.000000
1.668692 3.197052 0.000000
1.136938 3.582536 0.000000
1.896212 3.615670 0.000000
1.671430 3.540310 0.000000
1.237966 3.853077 0.000000
1.881946 3.761468 0.000000
1.256535 3.141528 0.000000
1.135058 3.409689 0.000000
1.403865 3.106645 0.000000
1.532392 3.142247 0.000000
1.123240 3.244073 0.000000
1.420602 3.798502 0.000000
1.402733 3.240040 0.000000
1.773475 3.863356 0.000000
1.108472 3.888274 0.000000
1.109288 3.110454 0.000000
1.897751 3.891631 0.000000
1.833274 3.106600 0.000000
CELLS 86 344 
3 26 19 20
3 29  8  7
3 24 33 30
3 34 25 33
3 35 24 31
3 24 35 33
3 36 24 30
3 36 26 32
3 7 39 29
3 39 27 29
3 40 21 22
3 40 28 32
3 21 40 32
3 24 41 31
3 28 41 32
3 41 28 31
3 42 15 14
3 23 43 22
3 43 40 22
3 28 40 43
3 36 41 24
3 36 32 41
3 34 35 27
3 34 33 35
3 45  6  5
3 34 45 25
3 6 39  7
3 6 45 39
3 34 27 39
3 34 39 45
3 36 38 26
3 30 38 36
3 16 37 17
3 28 37 31
3 27 42 29
3 20 21 32
3 26 20 32
3 11 46 10
3 46 44 10
3 30 47 38
3 11 47 46
3 49 42 27
3 50 30 33
3 50 44 46
3 51 37 28
3 43 51 28
3 8 52  1
3 52 14  1
3 35 49 27
3 35 31 49
3 25 48 44
3 25 45 48
3 12 47 11
3 12 38 47
3 25 50 33
3 25 44 50
3 50 47 30
3 46 47 50
3 14 52 42
3 52 29 42
3 29 52  8
3 10 44  9
3 5  4 48
3 45  5 48
3 37 51 17
3 49 37 16
3 37 49 31
3 15 42 49
3 15 49 16
3 51 18 17
3 53  4  0
3 9 53  0
3 4 53 48
3 44 53  9
3 44 48 53
3 54 23  3
3 23 54 43
3 18 54  3
3 51 54 18
3 51 43 54
3 13 55 12
3 55 38 12
3 55 26 38
3 55 13  2
3 19 55  2
3 26 55 19
CELL_TYPES 86
5 5 5 5 5 5 5 5 5 5 5 5 5 5 5 5 5 5 5 5 5 5 5 5 5 5 5 5 5 5 5 5 5 5 5 5 5 5 5 5 5 5 5 5 5 5 5 5 5 5 5 5 5 5 5 5 5 5 5 5 5 5 5 5 5 5 5 5 5 5 5 5 5 5 5 5 5 5 5 5 5 5 5 5 5 5 
POINT_DATA 56
VECTORS displacement_ITER1 FLOAT
 4.880856e-04  -1.599736e-03  0 
 1.390497e-03  -9.358470e-04  0 
 4.105948e-04  -3.868182e-03  0 
 2.265050e-03  -4.506687e-03  0 
 5.601789e-04  -1.688313e-03  0 
 7.608162e-04  -1.688480e-03  0 
 9.958709e-04  -1.656829e-03  0 
 1.225596e-03  -1.553498e-03  0 
 1.404484e-03  -1.375249e-03  0 
 3.275228e-04  -1.944307e-03  0 
 2.598528e-04  -2.280555e-03  0 
 2.256192e-04  -2.629085e-03  0 
 2.256076e-04  -2.987839e-03  0 
 2.781644e-04  -3.390794e-03  0 
 1.671194e-03  -1.707057e-03  0 
 1.815604e-03  -2.182660e-03  0 
 1.918157e-03  -2.615416e-03  0 
 2.005320e-03  -3.068722e-03  0 
 2.129468e-03  -3.625218e-03  0 
 5.035382e-04  -3.658759e-03  0 
 7.241234e-04  -3.577776e-03  0 
 9.786231e-04  -3.613128e-03  0 
 1.282657e-03  -3.756022e-03  0 
 1.678217e-03  -4.039059e-03  0 
 9.260699e-04  -2.665749e-03  0 
 7.581956e-04  -2.113520e-03  0 
 6.654878e-04  -3.309991e-03  0 
 1.158585e-03  -2.005421e-03  0 
 1.217950e-03  -3.141839e-03  0 
 1.269349e-03  -1.655788e-03  0 
 7.258603e-04  -2.677540e-03  0 
 1.142066e-03  -2.698607e-03  0 
 9.143801e-04  -3.295772e-03  0 
 8.484072e-04  -2.378552e-03  0 
 9.874494e-04  -2.080820e-03  0 
 1.040168e-03  -2.345896e-03  0 
 7.882714e-04  -3.005601e-03  0 
 1.489550e-03  -2.834347e-03  0 
 5.902415e-04  -3.010103e-03  0 
 1.082219e-03  -1.814464e-03  0 
 1.146267e-03  -3.484549e-03  0 
 9.858855e-04  -2.945575e-03  0 
 1.385380e-03  -1.822742e-03  0 
 1.422053e-03  -3.584462e-03  0 
 5.252244e-04  -2.084315e-03  0 
 8.609820e-04  -1.882861e-03  0 
 4.338912e-04  -2.409283e-03  0 
 4.827521e-04  -2.686470e-03  0 
 6.531330e-04  -1.855863e-03  0 
 1.369438e-03  -2.316650e-03  0 
 6.406215e-04  -2.389138e-03  0 
 1.637787e-03  -3.330556e-03  0 
 1.353421e-03  -1.420260e-03  0 
 5.246367e-04  -1.789833e-03  0 
 1.761648e-03  -3.795349e-03  0 
 4.799022e-04  -3.417677e-03  0 
VECTORS displacement_ITER2 FLOAT
 6.071775e-04  -1.646451e-03  0 
 8.855792e-04  -1.043478e-03  0 
 5.770792e-04  -3.532617e-03  0 
 1.923607e-03  -4.188606e-03  0 
 5.846991e-04  -1.785098e-03  0 
 7.173284e-04  -1.795326e-03  0 
 8.709246e-04  -1.778620e-03  0 
 9.964069e-04  -1.695793e-03  0 
 1.062114e-03  -1.538843e-03  0 
 4.474562e-04  -1.962906e-03  0 
 3.771406e-04  -2.215888e-03  0 
 3.465998e-04  -2.459687e-03  0 
 3.587463e-04  -2.716617e-03  0 
 4.169601e-04  -3.044028e-03  0 
 1.207011e-03  -1.753187e-03  0 
 1.366671e-03  -2.112123e-03  0 
 1.480244e-03  -2.439569e-03  0 
 1.579975e-03  -2.796038e-03  0 
 1.735208e-03  -3.282294e-03  0 
 5.605361e-04  -3.237648e-03  0 
 6.821946e-04  -3.141048e-03  0 
 8.336455e-04  -3.172320e-03  0 
 1.037599e-03  -3.317100e-03  0 
 1.344849e-03  -3.617253e-03  0 
 7.919549e-04  -2.481466e-03  0 
 7.182083e-04  -2.086173e-03  0 
 6.607317e-04  -2.974685e-03  0 
 9.237586e-04  -1.960289e-03  0 
 9.656630e-04  -2.843255e-03  0 
 9.822633e-04  -1.704031e-03  0 
 7.024564e-04  -2.509947e-03  0 
 9.122623e-04  -2.490163e-03  0 
 7.835150e-04  -2.950340e-03  0 
 7.662833e-04  -2.278610e-03  0 
 8.458260e-04  -2.050195e-03  0 
 8.553087e-04  -2.228976e-03  0 
 7.229436e-04  -2.746130e-03  0 
 1.161393e-03  -2.596288e-03  0 
 6.318167e-04  -2.769172e-03  0 
 9.095520e-04  -1.860233e-03  0 
 9.312797e-04  -3.102874e-03  0 
 8.202178e-04  -2.689280e-03  0 
 1.023444e-03  -1.801724e-03  0 
 1.121453e-03  -3.210826e-03  0 
 5.787740e-04  -2.052706e-03  0 
 7.823163e-04  -1.926072e-03  0 
 5.014187e-04  -2.302187e-03  0 
 5.383090e-04  -2.509744e-03  0 
 6.516487e-04  -1.897867e-03  0 
 1.052042e-03  -2.183765e-03  0 
 6.469214e-04  -2.285206e-03  0 
 1.285219e-03  -3.002684e-03  0 
 9.507735e-04  -1.477800e-03  0 
 5.952801e-04  -1.823674e-03  0 
 1.398165e-03  -3.422066e-03  0 
 5.873905e-04  -3.088900e-03  0 
VECTORS displacement_ITER3 FLOAT
 4.654612e-04  -1.479310e-03  0 
 9.141434e-04  -9.854606e-04  0 
 4.958974e-04  -3.626693e-03  0 
 2.027496e-03  -4.321304e-03  0 
 4.970856e-04  -1.656734e-03  0 
 6.666342e-04  -1.691540e-03  0 
 8.547138e-04  -1.680226e-03  0 
 1.006918e-03  -1.619258e-03  0 
 1.102350e-03  -1.478490e-03  0 
 3.180204e-04  -1.882839e-03  0 
 2.544669e-04  -2.176116e-03  0 
 2.285546e-04  -2.468977e-03  0 
 2.397448e-04  -2.768346e-03  0 
 3.103596e-04  -3.120042e-03  0 
 1.262817e-03  -1.712095e-03  0 
 1.429053e-03  -2.094985e-03  0 
 1.550199e-03  -2.452921e-03  0 
 1.659893e-03  -2.841657e-03  0 
 1.820434e-03  -3.356098e-03  0 
 4.725103e-04  -3.340683e-03  0 
 6.220698e-04  -3.245589e-03  0 
 8.126122e-04  -3.277692e-03  0 
 1.050639e-03  -3.424448e-03  0 
 1.394331e-03  -3.723236e-03  0 
 7.761817e-04  -2.494798e-03  0 
 6.734288e-04  -2.038779e-03  0 
 5.943174e-04  -3.051739e-03  0 
 9.420368e-04  -1.925046e-03  0 
 9.830004e-04  -2.891735e-03  0 
 1.010884e-03  -1.651050e-03  0 
 6.514239e-04  -2.525114e-03  0 
 9.243044e-04  -2.504890e-03  0 
 7.578427e-04  -3.021305e-03  0 
 7.378846e-04  -2.264029e-03  0 
 8.381894e-04  -2.010732e-03  0 
 8.581198e-04  -2.216828e-03  0 
 6.805278e-04  -2.791771e-03  0 
 1.204400e-03  -2.620471e-03  0 
 5.571404e-04  -2.818200e-03  0 
 9.122812e-04  -1.796970e-03  0 
 9.339316e-04  -3.186838e-03  0 
 8.100737e-04  -2.725800e-03  0 
 1.062469e-03  -1.762714e-03  0 
 1.155938e-03  -3.291539e-03  0 
 4.918362e-04  -1.999831e-03  0 
 7.501257e-04  -1.854082e-03  0 
 4.078108e-04  -2.286474e-03  0 
 4.525451e-04  -2.526177e-03  0 
 5.879478e-04  -1.812453e-03  0 
 1.087580e-03  -2.172558e-03  0 
 5.827939e-04  -2.270336e-03  0 
 1.340209e-03  -3.062100e-03  0 
 9.899146e-04  -1.418431e-03  0 
 4.999012e-04  -1.724856e-03  0 
 1.459144e-03  -3.506721e-03  0 
 4.942970e-04  -3.176114e-03  0 
VECTORS displacement_ITER4 FLOAT
 3.805302e-04  -1.389793e-03  0 
 8.112180e-04  -9.901290e-04  0 
 4.593812e-04  -3.551612e-03  0 
 1.954559e-03  -4.260689e-03  0 
 4.372475e-04  -1.603720e-03  0 
 6.025021e-04  -1.654235e-03  0 
 7.850676e-04  -1.645036e-03  0 
 9.351866e-04  -1.594244e-03  0 
 1.025356e-03  -1.460851e-03  0 
 2.455769e-04  -1.833127e-03  0 
 1.874134e-04  -2.134691e-03  0 
 1.694760e-04  -2.426640e-03  0 
 1.821801e-04  -2.718648e-03  0 
 2.595775e-04  -3.056009e-03  0 
 1.172280e-03  -1.684485e-03  0 
 1.344904e-03  -2.056370e-03  0 
 1.468204e-03  -2.409838e-03  0 
 1.581246e-03  -2.795716e-03  0 
 1.742308e-03  -3.306055e-03  0 
 4.146297e-04  -3.276706e-03  0 
 5.579339e-04  -3.184860e-03  0 
 7.443682e-04  -3.219441e-03  0 
 9.791803e-04  -3.365351e-03  0 
 1.319351e-03  -3.667072e-03  0 
 7.106653e-04  -2.447919e-03  0 
 6.127394e-04  -1.994940e-03  0 
 5.312897e-04  -2.997869e-03  0 
 8.721948e-04  -1.887351e-03  0 
 9.115958e-04  -2.839354e-03  0 
 9.382465e-04  -1.621588e-03  0 
 5.891487e-04  -2.480494e-03  0 
 8.540800e-04  -2.456737e-03  0 
 6.901178e-04  -2.967060e-03  0 
 6.755285e-04  -2.220372e-03  0 
 7.727084e-04  -1.971590e-03  0 
 7.907470e-04  -2.173756e-03  0 
 6.158126e-04  -2.742329e-03  0 
 1.129376e-03  -2.571927e-03  0 
 4.958445e-04  -2.770807e-03  0 
 8.445055e-04  -1.763237e-03  0 
 8.636431e-04  -3.130949e-03  0 
 7.422252e-04  -2.675398e-03  0 
 9.850681e-04  -1.727252e-03  0 
 1.082656e-03  -3.236312e-03  0 
 4.325801e-04  -1.957200e-03  0 
 6.851269e-04  -1.814215e-03  0 
 3.465521e-04  -2.246843e-03  0 
 3.910297e-04  -2.482716e-03  0 
 5.298516e-04  -1.766641e-03  0 
 1.012540e-03  -2.129399e-03  0 
 5.217381e-04  -2.227697e-03  0 
 1.265652e-03  -3.010374e-03  0 
 9.100348e-04  -1.393061e-03  0 
 4.398961e-04  -1.673424e-03  0 
 1.385508e-03  -3.450419e-03  0 
 4.372664e-04  -3.121061e-03  0 
VECTORS displacement_ITER5 FLOAT
 3.513638e-04  -1.397950e-03  0 
 7.341581e-04  -1.080540e-03  0 
 4.719101e-04  -3.535996e-03  0 
 1.903094e-03  -4.264567e-03  0 
 4.169781e-04  -1.631062e-03  0 
 5.799392e-04  -1.693995e-03  0 
 7.565125e-04  -1.695127e-03  0 
 8.988331e-04  -1.650134e-03  0 
 9.739681e-04  -1.526924e-03  0 
 2.230600e-04  -1.855826e-03  0 
 1.733368e-04  -2.161077e-03  0 
 1.629144e-04  -2.451792e-03  0 
 1.791574e-04  -2.737621e-03  0 
 2.637816e-04  -3.059403e-03  0 
 1.104549e-03  -1.737644e-03  0 
 1.286889e-03  -2.090968e-03  0 
 1.412375e-03  -2.433698e-03  0 
 1.527749e-03  -2.810755e-03  0 
 1.690042e-03  -3.316753e-03  0 
 4.031859e-04  -3.270222e-03  0 
 5.342393e-04  -3.181941e-03  0 
 7.123658e-04  -3.217769e-03  0 
 9.403818e-04  -3.363934e-03  0 
 1.274390e-03  -3.669651e-03  0 
 6.827785e-04  -2.470029e-03  0 
 5.945814e-04  -2.028950e-03  0 
 5.115893e-04  -3.006472e-03  0 
 8.363316e-04  -1.923852e-03  0 
 8.724513e-04  -2.850579e-03  0 
 8.973772e-04  -1.669713e-03  0 
 5.705681e-04  -2.505819e-03  0 
 8.175983e-04  -2.476167e-03  0 
 6.598569e-04  -2.973990e-03  0 
 6.534799e-04  -2.250160e-03  0 
 7.456759e-04  -2.007736e-03  0 
 7.592791e-04  -2.202148e-03  0 
 5.921014e-04  -2.758235e-03  0 
 1.083874e-03  -2.588950e-03  0 
 4.818683e-04  -2.790356e-03  0 
 8.136981e-04  -1.808120e-03  0 
 8.270184e-04  -3.134640e-03  0 
 7.104842e-04  -2.690589e-03  0 
 9.370702e-04  -1.767216e-03  0 
 1.039531e-03  -3.241497e-03  0 
 4.180541e-04  -1.988518e-03  0 
 6.629538e-04  -1.854002e-03  0 
 3.344473e-04  -2.276486e-03  0 
 3.792628e-04  -2.508831e-03  0 
 5.125234e-04  -1.799749e-03  0 
 9.683762e-04  -2.156641e-03  0 
 5.062344e-04  -2.258254e-03  0 
 1.218125e-03  -3.020725e-03  0 
 8.567351e-04  -1.450320e-03  0 
 4.216987e-04  -1.699198e-03  0 
 1.337899e-03  -3.457074e-03  0 
 4.299775e-04  -3.129944e-03  0 
VECTORS displacement_ITER6 FLOAT
 2.862767e-04  -1.414459e-03  0 
 6.823488e-04  -1.186318e-03  0 
 4.316274e-04  -3.586188e-03  0 
 1.874355e-03  -4.330625e-03  0 
 3.707750e-04  -1.665194e-03  0 
 5.419940e-04  -1.738677e-03  0 
 7.210507e-04  -1.749328e-03  0 
 8.636136e-04  -1.710800e-03  0 
 9.354051e-04  -1.601962e-03  0 
 1.670071e-04  -1.898900e-03  0 
 1.242287e-04  -2.213732e-03  0 
 1.182280e-04  -2.509540e-03  0 
 1.368270e-04  -2.797775e-03  0 
 2.237870e-04  -3.116296e-03  0 
 1.060604e-03  -1.810425e-03  0 
 1.249962e-03  -2.154179e-03  0 
 1.378189e-03  -2.492985e-03  0 
 1.494837e-03  -2.869653e-03  0 
 1.660179e-03  -3.379020e-03  0 
 3.618769e-04  -3.327636e-03  0 
 4.948951e-04  -3.243907e-03  0 
 6.767694e-04  -3.280808e-03  0 
 9.068844e-04  -3.427831e-03  0 
 1.242755e-03  -3.733265e-03  0 
 6.484508e-04  -2.528621e-03  0 
 5.585799e-04  -2.082989e-03  0 
 4.708825e-04  -3.066564e-03  0 
 8.051322e-04  -1.983578e-03  0 
 8.394708e-04  -2.910097e-03  0 
 8.650809e-04  -1.734302e-03  0 
 5.320284e-04  -2.564860e-03  0 
 7.851726e-04  -2.534561e-03  0 
 6.236023e-04  -3.034960e-03  0 
 6.184955e-04  -2.307204e-03  0 
 7.129687e-04  -2.064097e-03  0 
 7.272568e-04  -2.260302e-03  0 
 5.540595e-04  -2.817994e-03  0 
 1.051779e-03  -2.647245e-03  0 
 4.403653e-04  -2.850295e-03  0 
 7.803478e-04  -1.865643e-03  0 
 7.928130e-04  -3.196672e-03  0 
 6.760389e-04  -2.749965e-03  0 
 9.042665e-04  -1.831083e-03  0 
 1.006937e-03  -3.303002e-03  0 
 3.747525e-04  -2.041169e-03  0 
 6.285093e-04  -1.905994e-03  0 
 2.909763e-04  -2.333643e-03  0 
 3.374741e-04  -2.568670e-03  0 
 4.732317e-04  -1.846493e-03  0 
 9.367491e-04  -2.215566e-03  0 
 4.669135e-04  -2.316019e-03  0 
 1.186019e-03  -3.080282e-03  0 
 8.214716e-04  -1.524902e-03  0 
 3.744217e-04  -1.740259e-03  0 
 1.306644e-03  -3.519518e-03  0 
 3.875719e-04  -3.188284e-03  0 
VECTORS displacement_ITER7 FLOAT
 2.467811e-04  -1.390800e-03  0 
 6.604266e-04  -1.243187e-03  0 
 4.119113e-04  -3.600865e-03  0 
 1.876180e-03  -4.369951e-03  0 
 3.493398e-04  -1.660514e-03  0 
 5.258957e-04  -1.744163e-03  0 
 7.069535e-04  -1.762662e-03  0 
 8.503508e-04  -1.729313e-03  0 
 9.209015e-04  -1.631858e-03  0 
 1.364981e-04  -1.902428e-03  0 
 9.847990e-05  -2.225699e-03  0 
 9.580583e-05  -2.525493e-03  0 
 1.168419e-04  -2.816516e-03  0 
 2.052865e-04  -3.134830e-03  0 
 1.044257e-03  -1.840549e-03  0 
 1.237737e-03  -2.177472e-03  0 
 1.368972e-03  -2.513927e-03  0 
 1.488358e-03  -2.891232e-03  0 
 1.657746e-03  -3.404895e-03  0 
 3.441122e-04  -3.346404e-03  0 
 4.799460e-04  -3.265993e-03  0 
 6.647437e-04  -3.304276e-03  0 
 8.968282e-04  -3.453400e-03  0 
 1.236111e-03  -3.762164e-03  0 
 6.368936e-04  -2.547357e-03  0 
 5.448651e-04  -2.095667e-03  0 
 4.542237e-04  -3.086840e-03  0 
 7.961630e-04  -2.003024e-03  0 
 8.294806e-04  -2.931248e-03  0 
 8.551584e-04  -1.757364e-03  0 
 5.165253e-04  -2.583103e-03  0 
 7.756161e-04  -2.553817e-03  0 
 6.107960e-04  -3.056844e-03  0 
 6.059561e-04  -2.323442e-03  0 
 7.019858e-04  -2.079898e-03  0 
 7.175274e-04  -2.278513e-03  0 
 5.394259e-04  -2.837988e-03  0 
 1.043528e-03  -2.666773e-03  0 
 4.223242e-04  -2.869596e-03  0 
 7.685522e-04  -1.882171e-03  0 
 7.818416e-04  -3.220209e-03  0 
 6.646168e-04  -2.770188e-03  0 
 8.952103e-04  -1.854887e-03  0 
 9.978571e-04  -3.327378e-03  0 
 3.549869e-04  -2.052308e-03  0 
 6.155014e-04  -1.917323e-03  0 
 2.703842e-04  -2.349208e-03  0 
 3.185780e-04  -2.587039e-03  0 
 4.569766e-04  -1.852489e-03  0 
 9.284940e-04  -2.235130e-03  0 
 4.504015e-04  -2.332162e-03  0 
 1.178443e-03  -3.102405e-03  0 
 8.111240e-04  -1.556474e-03  0 
 3.521237e-04  -1.741533e-03  0 
 1.300283e-03  -3.546560e-03  0 
 3.685245e-04  -3.207111e-03  0 
VECTORS displacement_ITER8 FLOAT
 2.266415e-04  -1.349018e-03  0 
 6.411440e-04  -1.269810e-03  0 
 4.012192e-04  -3.588492e-03  0 
 1.882732e-03  -4.377081e-03  0 
 3.396348e-04  -1.634418e-03  0 
 5.187766e-04  -1.726427e-03  0 
 7.014251e-04  -1.750608e-03  0 
 8.452754e-04  -1.723442e-03  0 
 9.129586e-04  -1.636265e-03  0 
 1.206186e-04  -1.880490e-03  0 
 8.486250e-05  -2.211650e-03  0 
 8.424528e-05  -2.515143e-03  0 
 1.069351e-04  -2.809029e-03  0 
 1.962247e-04  -3.126832e-03  0 
 1.031226e-03  -1.841973e-03  0 
 1.229385e-03  -2.171145e-03  0 
 1.364626e-03  -2.505560e-03  0 
 1.487263e-03  -2.883305e-03  0 
 1.660110e-03  -3.399667e-03  0 
 3.352028e-04  -3.338182e-03  0 
 4.736233e-04  -3.259262e-03  0 
 6.597690e-04  -3.298166e-03  0 
 8.931294e-04  -3.447769e-03  0 
 1.235022e-03  -3.759462e-03  0 
 6.334522e-04  -2.537593e-03  0 
 5.404863e-04  -2.081816e-03  0 
 4.468213e-04  -3.078890e-03  0 
 7.941934e-04  -1.994707e-03  0 
 8.260633e-04  -2.922528e-03  0 
 8.519074e-04  -1.753443e-03  0 
 5.107387e-04  -2.573360e-03  0 
 7.727090e-04  -2.543788e-03  0 
 6.057748e-04  -3.049419e-03  0 
 6.023461e-04  -2.312284e-03  0 
 6.991852e-04  -2.069229e-03  0 
 7.152210e-04  -2.268663e-03  0 
 5.337049e-04  -2.829439e-03  0 
 1.040962e-03  -2.656682e-03  0 
 4.140993e-04  -2.861148e-03  0 
 7.651759e-04  -1.872895e-03  0 
 7.777391e-04  -3.213471e-03  0 
 6.607344e-04  -2.761174e-03  0 
 8.910299e-04  -1.849820e-03  0 
 9.948847e-04  -3.321081e-03  0 
 3.469712e-04  -2.036429e-03  0 
 6.109399e-04  -1.903442e-03  0 
 2.609563e-04  -2.337791e-03  0 
 3.101745e-04  -2.578112e-03  0 
 4.508043e-04  -1.833493e-03  0 
 9.256758e-04  -2.225270e-03  0 
 4.443023e-04  -2.320710e-03  0 
 1.176595e-03  -3.094381e-03  0 
 8.050340e-04  -1.559584e-03  0 
 3.426271e-04  -1.717892e-03  0 
 1.299314e-03  -3.542399e-03  0 
 3.586505e-04  -3.198795e-03  0 
VECTORS displacement_ITER9 FLOAT
 2.059261e-04  -1.337364e-03  0 
 5.916228e-04  -1.316821e-03  0 
 3.939553e-04  -3.564548e-03  0 
 1.858324e-03  -4.378188e-03  0 
 3.232426e-04  -1.635495e-03  0 
 5.008422e-04  -1.734416e-03  0 
 6.802129e-04  -1.762766e-03  0 
 8.199784e-04  -1.741791e-03  0 
 8.805828e-04  -1.664356e-03  0 
 1.039148e-04  -1.879608e-03  0 
 7.125544e-05  -2.212644e-03  0 
 7.376954e-05  -2.514019e-03  0 
 9.864808e-05  -2.804325e-03  0 
 1.893406e-04  -3.114171e-03  0 
 9.875949e-04  -1.860863e-03  0 
 1.190956e-03  -2.177640e-03  0 
 1.329479e-03  -2.506096e-03  0 
 1.455180e-03  -2.879933e-03  0 
 1.631343e-03  -3.394424e-03  0 
 3.235455e-04  -3.321621e-03  0 
 4.576352e-04  -3.245954e-03  0 
 6.399328e-04  -3.286056e-03  0 
 8.689472e-04  -3.436408e-03  0 
 1.207632e-03  -3.752107e-03  0 
 6.140044e-04  -2.536351e-03  0 
 5.247843e-04  -2.085798e-03  0 
 4.312658e-04  -3.069462e-03  0 
 7.711292e-04  -2.002298e-03  0 
 8.010358e-04  -2.916620e-03  0 
 8.258049e-04  -1.769202e-03  0 
 4.948278e-04  -2.572355e-03  0 
 7.489983e-04  -2.541480e-03  0 
 5.860149e-04  -3.041028e-03  0 
 5.850844e-04  -2.314362e-03  0 
 6.796404e-04  -2.075519e-03  0 
 6.941444e-04  -2.271221e-03  0 
 5.161411e-04  -2.824334e-03  0 
 1.012637e-03  -2.653021e-03  0 
 3.997278e-04  -2.856220e-03  0 
 7.437335e-04  -1.884090e-03  0 
 7.546286e-04  -3.204361e-03  0 
 6.396290e-04  -2.756739e-03  0 
 8.606224e-04  -1.860595e-03  0 
 9.678718e-04  -3.313286e-03  0 
 3.335688e-04  -2.038928e-03  0 
 5.929350e-04  -1.910845e-03  0 
 2.480324e-04  -2.339418e-03  0 
 2.973247e-04  -2.577609e-03  0 
 4.358273e-04  -1.837334e-03  0 
 8.978071e-04  -2.226984e-03  0 
 4.299627e-04  -2.322538e-03  0 
 1.147765e-03  -3.087959e-03  0 
 7.717328e-04  -1.582028e-03  0 
 3.280645e-04  -1.717849e-03  0 
 1.270680e-03  -3.536052e-03  0 
 3.466854e-04  -3.186997e-03  0 
VECTORS displacement_ITER10 FLOAT
 1.786099e-04  -1.316789e-03  0 
 5.571392e-04  -1.336087e-03  0 
 3.786990e-04  -3.547919e-03  0 
 1.843344e-03  -4.376850e-03  0 
 3.024569e-04  -1.623641e-03  0 
 4.822221e-04  -1.727847e-03  0 
 6.610612e-04  -1.759380e-03  0 
 7.991594e-04  -1.743031e-03  0 
 8.563958e-04  -1.672398e-03  0 
 8.042984e-05  -1.869737e-03  0 
 5.091996e-05  -2.205335e-03  0 
 5.585269e-05  -2.507459e-03  0 
 8.198516e-05  -2.797322e-03  0 
 1.737383e-04  -3.103427e-03  0 
 9.577642e-04  -1.864487e-03  0 
 1.165089e-03  -2.174928e-03  0 
 1.305704e-03  -2.500547e-03  0 
 1.433417e-03  -2.872969e-03  0 
 1.612309e-03  -3.387578e-03  0 
 3.064424e-04  -3.310260e-03  0 
 4.385465e-04  -3.236765e-03  0 
 6.206443e-04  -3.277110e-03  0 
 8.491259e-04  -3.427946e-03  0 
 1.187785e-03  -3.745536e-03  0 
 5.954998e-04  -2.529739e-03  0 
 5.071359e-04  -2.080043e-03  0 
 4.123848e-04  -3.061141e-03  0 
 7.521644e-04  -1.998661e-03  0 
 7.810323e-04  -2.908457e-03  0 
 8.052737e-04  -1.769837e-03  0 
 4.764131e-04  -2.566180e-03  0 
 7.295230e-04  -2.534140e-03  0 
 5.667153e-04  -3.032736e-03  0 
 5.671911e-04  -2.308623e-03  0 
 6.616675e-04  -2.070909e-03  0 
 6.757088e-04  -2.265615e-03  0 
 4.973014e-04  -2.816994e-03  0 
 9.919314e-04  -2.645230e-03  0 
 3.810626e-04  -2.849074e-03  0 
 7.250712e-04  -1.881416e-03  0 
 7.348442e-04  -3.196000e-03  0 
 6.204544e-04  -2.749168e-03  0 
 8.381019e-04  -1.859001e-03  0 
 9.475147e-04  -3.305254e-03  0 
 3.146670e-04  -2.032558e-03  0 
 5.749905e-04  -1.905618e-03  0 
 2.294254e-04  -2.333700e-03  0 
 2.791635e-04  -2.571839e-03  0 
 4.176190e-04  -1.829890e-03  0 
 8.769483e-04  -2.221123e-03  0 
 4.118501e-04  -2.317075e-03  0 
 1.127340e-03  -3.079604e-03  0 
 7.471716e-04  -1.586791e-03  0 
 3.076292e-04  -1.707607e-03  0 
 1.250902e-03  -3.528686e-03  0 
 3.287254e-04  -3.177117e-03  0 
VECTORS displacement_ITER11 FLOAT
 1.674095e-04  -1.303845e-03  0 
 5.343775e-04  -1.351413e-03  0 
 3.751853e-04  -3.535534e-03  0 
 1.834539e-03  -4.371331e-03  0 
 2.952617e-04  -1.617640e-03  0 
 4.753852e-04  -1.725622e-03  0 
 6.531397e-04  -1.759778e-03  0 
 7.891628e-04  -1.746471e-03  0 
 8.426743e-04  -1.680247e-03  0 
 7.195796e-05  -1.864422e-03  0 
 4.413835e-05  -2.201224e-03  0 
 5.055119e-05  -2.502838e-03  0 
 7.737977e-05  -2.791587e-03  0 
 1.699694e-04  -3.095021e-03  0 
 9.391658e-04  -1.868540e-03  0 
 1.149539e-03  -2.174105e-03  0 
 1.291646e-03  -2.496738e-03  0 
 1.420623e-03  -2.867170e-03  0 
 1.601175e-03  -3.380833e-03  0 
 3.011875e-04  -3.300653e-03  0 
 4.318143e-04  -3.227602e-03  0 
 6.123306e-04  -3.268309e-03  0 
 8.394806e-04  -3.419573e-03  0 
 1.177535e-03  -3.737553e-03  0 
 5.880025e-04  -2.524723e-03  0 
 5.011558e-04  -2.076958e-03  0 
 4.059483e-04  -3.053745e-03  0 
 7.431338e-04  -1.996950e-03  0 
 7.714843e-04  -2.901332e-03  0 
 7.946235e-04  -1.771756e-03  0 
 4.699606e-04  -2.561652e-03  0 
 7.204454e-04  -2.528493e-03  0 
 5.585999e-04  -3.025374e-03  0 
 5.606066e-04  -2.304906e-03  0 
 6.543727e-04  -2.068675e-03  0 
 6.676710e-04  -2.261893e-03  0 
 4.901859e-04  -2.810997e-03  0 
 9.810198e-04  -2.639196e-03  0 
 3.749688e-04  -2.843308e-03  0 
 7.169544e-04  -1.881328e-03  0 
 7.255685e-04  -3.188095e-03  0 
 6.122127e-04  -2.742895e-03  0 
 8.253905e-04  -1.858912e-03  0 
 9.373616e-04  -3.297297e-03  0 
 3.086781e-04  -2.029004e-03  0 
 5.683786e-04  -1.903728e-03  0 
 2.234997e-04  -2.330084e-03  0 
 2.734127e-04  -2.567503e-03  0 
 4.116647e-04  -1.826235e-03  0 
 8.659359e-04  -2.217327e-03  0 
 4.058804e-04  -2.313525e-03  0 
 1.116417e-03  -3.072211e-03  0 
 7.326307e-04  -1.591480e-03  0 
 3.009795e-04  -1.702104e-03  0 
 1.240298e-03  -3.520968e-03  0 
 3.232901e-04  -3.169181e-03  0 
VECTORS displacement_ITER12 FLOAT
 1.567787e-04  -1.295895e-03  0 
 5.218910e-04  -1.359800e-03  0 
 3.717823e-04  -3.532780e-03  0 
 1.828424e-03  -4.370854e-03  0 
 2.886792e-04  -1.614042e-03  0 
 4.693073e-04  -1.724598e-03  0 
 6.469351e-04  -1.760597e-03  0 
 7.825188e-04  -1.748689e-03  0 
 8.347488e-04  -1.684614e-03  0 
 6.354985e-05  -1.861826e-03  0 
 3.717699e-05  -2.200173e-03  0 
 4.479969e-05  -2.502296e-03  0 
 7.231047e-05  -2.790958e-03  0 
 1.658044e-04  -3.093584e-03  0 
 9.291516e-04  -1.871655e-03  0 
 1.141054e-03  -2.175152e-03  0 
 1.283934e-03  -2.496813e-03  0 
 1.413489e-03  -2.866852e-03  0 
 1.594551e-03  -3.380543e-03  0 
 2.962757e-04  -3.298915e-03  0 
 4.262140e-04  -3.225967e-03  0 
 6.062684e-04  -3.266909e-03  0 
 8.331091e-04  -3.418409e-03  0 
 1.171123e-03  -3.736771e-03  0 
 5.823444e-04  -2.524395e-03  0 
 4.958744e-04  -2.076556e-03  0 
 4.005030e-04  -3.052922e-03  0 
 7.370215e-04  -1.997540e-03  0 
 7.651179e-04  -2.900418e-03  0 
 7.879398e-04  -1.773671e-03  0 
 4.644979e-04  -2.561599e-03  0 
 7.142588e-04  -2.527899e-03  0 
 5.525732e-04  -3.024444e-03  0 
 5.552635e-04  -2.304785e-03  0 
 6.488114e-04  -2.068897e-03  0 
 6.618933e-04  -2.261836e-03  0 
 4.845272e-04  -2.810571e-03  0 
 9.742703e-04  -2.638546e-03  0 
 3.696174e-04  -2.843036e-03  0 
 7.109880e-04  -1.882289e-03  0 
 7.192516e-04  -3.187029e-03  0 
 6.062382e-04  -2.742225e-03  0 
 8.179296e-04  -1.860094e-03  0 
 9.308755e-04  -3.296310e-03  0 
 3.026642e-04  -2.028243e-03  0 
 5.628306e-04  -1.903553e-03  0 
 2.175985e-04  -2.329859e-03  0 
 2.678842e-04  -2.567420e-03  0 
 4.060454e-04  -1.824737e-03  0 
 8.591192e-04  -2.217219e-03  0 
 4.003772e-04  -2.313464e-03  0 
 1.109753e-03  -3.071418e-03  0 
 7.243507e-04  -1.594570e-03  0 
 2.942462e-04  -1.699474e-03  0 
 1.233857e-03  -3.520211e-03  0 
 3.184064e-04  -3.168287e-03  0 
VECTORS displacement_ITER13 FLOAT
 1.509017e-04  -1.289975e-03  0 
 5.126049e-04  -1.365072e-03  0 
 3.703042e-04  -3.529290e-03  0 
 1.823305e-03  -4.367377e-03  0 
 2.851682e-04  -1.611107e-03  0 
 4.658515e-04  -1.723306e-03  0 
 6.429701e-04  -1.760711e-03  0 
 7.778049e-04  -1.749722e-03  0 
 8.286989e-04  -1.687157e-03  0 
 5.913217e-05  -1.859300e-03  0 
 3.362441e-05  -2.198417e-03  0 
 4.190929e-05  -2.500652e-03  0 
 6.976617e-05  -2.788984e-03  0 
 1.637511e-04  -3.090787e-03  0 
 9.215585e-04  -1.873235e-03  0 
 1.134374e-03  -2.174677e-03  0 
 1.277732e-03  -2.495241e-03  0 
 1.407691e-03  -2.864531e-03  0 
 1.589055e-03  -3.377796e-03  0 
 2.932675e-04  -3.295443e-03  0 
 4.225447e-04  -3.222781e-03  0 
 6.024024e-04  -3.263606e-03  0 
 8.287322e-04  -3.414931e-03  0 
 1.166067e-03  -3.733393e-03  0 
 5.787310e-04  -2.522457e-03  0 
 4.928938e-04  -2.075209e-03  0 
 3.970917e-04  -3.050351e-03  0 
 7.327110e-04  -1.996841e-03  0 
 7.606968e-04  -2.897711e-03  0 
 7.830066e-04  -1.774217e-03  0 
 4.613662e-04  -2.559973e-03  0 
 7.100174e-04  -2.525752e-03  0 
 5.487682e-04  -3.021570e-03  0 
 5.520517e-04  -2.303317e-03  0 
 6.452331e-04  -2.067920e-03  0 
 6.580301e-04  -2.260361e-03  0 
 4.810598e-04  -2.808306e-03  0 
 9.692489e-04  -2.636241e-03  0 
 3.666096e-04  -2.841192e-03  0 
 7.069647e-04  -1.882137e-03  0 
 7.150442e-04  -3.183925e-03  0 
 6.023468e-04  -2.739833e-03  0 
 8.123390e-04  -1.860038e-03  0 
 9.261146e-04  -3.293195e-03  0 
 2.995391e-04  -2.026708e-03  0 
 5.595532e-04  -1.902602e-03  0 
 2.145225e-04  -2.328464e-03  0 
 2.649160e-04  -2.565913e-03  0 
 4.030170e-04  -1.822947e-03  0 
 8.541080e-04  -2.215777e-03  0 
 3.973734e-04  -2.312093e-03  0 
 1.104646e-03  -3.068576e-03  0 
 7.180437e-04  -1.596114e-03  0 
 2.907539e-04  -1.696972e-03  0 
 1.228774e-03  -3.516988e-03  0 
 3.158028e-04  -3.165868e-03  0 
VECTORS displacement_ITER14 FLOAT
 1.477490e-04  -1.289309e-03  0 
 5.058906e-04  -1.372700e-03  0 
 3.704107e-04  -3.530480e-03  0 
 1.819743e-03  -4.367303e-03  0 
 2.833936e-04  -1.612273e-03  0 
 4.643216e-04  -1.725763e-03  0 
 6.411305e-04  -1.764136e-03  0 
 7.751726e-04  -1.754003e-03  0 
 8.248632e-04  -1.692785e-03  0 
 5.694880e-05  -1.860637e-03  0 
 3.215599e-05  -2.200133e-03  0 
 4.095169e-05  -2.502388e-03  0 
 6.915584e-05  -2.790547e-03  0 
 1.634519e-04  -3.092056e-03  0 
 9.161661e-04  -1.877762e-03  0 
 1.129752e-03  -2.177389e-03  0 
 1.273450e-03  -2.496937e-03  0 
 1.403685e-03  -2.865395e-03  0 
 1.585353e-03  -3.378063e-03  0 
 2.922530e-04  -3.296094e-03  0 
 4.209833e-04  -3.223310e-03  0 
 6.002447e-04  -3.263875e-03  0 
 8.259477e-04  -3.414929e-03  0 
 1.162837e-03  -3.733296e-03  0 
 5.770336e-04  -2.524169e-03  0 
 4.917169e-04  -2.077544e-03  0 
 3.958068e-04  -3.051518e-03  0 
 7.304091e-04  -1.999557e-03  0 
 7.580990e-04  -2.898472e-03  0 
 7.801483e-04  -1.778032e-03  0 
 4.601744e-04  -2.561982e-03  0 
 7.076711e-04  -2.527137e-03  0 
 5.468175e-04  -3.022411e-03  0 
 5.507141e-04  -2.305501e-03  0 
 6.435864e-04  -2.070503e-03  0 
 6.561020e-04  -2.262452e-03  0 
 4.795667e-04  -2.809768e-03  0 
 9.661093e-04  -2.637317e-03  0 
 3.656710e-04  -2.842966e-03  0 
 7.049964e-04  -1.885357e-03  0 
 7.125371e-04  -3.184339e-03  0 
 6.003447e-04  -2.741059e-03  0 
 8.087799e-04  -1.863213e-03  0 
 9.231117e-04  -3.293406e-03  0 
 2.982378e-04  -2.028793e-03  0 
 5.581608e-04  -1.905279e-03  0 
 2.133804e-04  -2.330499e-03  0 
 2.639374e-04  -2.567884e-03  0 
 4.017408e-04  -1.825008e-03  0 
 8.510511e-04  -2.217724e-03  0 
 3.962434e-04  -2.314297e-03  0 
 1.101327e-03  -3.068988e-03  0 
 7.138615e-04  -1.600721e-03  0 
 2.890778e-04  -1.698411e-03  0 
 1.225394e-03  -3.517090e-03  0 
 3.152325e-04  -3.167321e-03  0 
VECTORS displacement_ITER15 FLOAT
 1.468030e-04  -1.287897e-03  0 
 5.029594e-04  -1.376156e-03  0 
 3.713495e-04  -3.530455e-03  0 
 1.818913e-03  -4.367024e-03  0 
 2.832972e-04  -1.612025e-03  0 
 4.642340e-04  -1.726324e-03  0 
 6.408583e-04  -1.765001e-03  0 
 7.745677e-04  -1.755433e-03  0 
 8.236643e-04  -1.694908e-03  0 
 5.662071e-05  -1.860443e-03  0 
 3.211511e-05  -2.200266e-03  0 
 4.117210e-05  -2.502508e-03  0 
 6.955488e-05  -2.790625e-03  0 
 1.640402e-04  -3.092023e-03  0 
 9.140501e-04  -1.879202e-03  0 
 1.128083e-03  -2.178040e-03  0 
 1.272033e-03  -2.497159e-03  0 
 1.402445e-03  -2.865295e-03  0 
 1.584361e-03  -3.377657e-03  0 
 2.924983e-04  -3.295774e-03  0 
 4.210238e-04  -3.222786e-03  0 
 5.998952e-04  -3.263225e-03  0 
 8.252783e-04  -3.414268e-03  0 
 1.162016e-03  -3.732778e-03  0 
 5.769178e-04  -2.524329e-03  0 