# vtk DataFile Version 3.1
this is an vtk file created by FEMAC
ASCII
DATASET UNSTRUCTURED_GRID
POINTS 60 FLOAT
3.000000 5.000000 0.000000
3.000000 6.000000 0.000000
4.000000 5.000000 0.000000
4.000000 6.000000 0.000000
3.000000 5.166667 0.000000
3.000000 5.333333 0.000000
3.000000 5.500000 0.000000
3.000000 5.666667 0.000000
3.000000 5.833333 0.000000
3.166667 5.000000 0.000000
3.333333 5.000000 0.000000
3.500000 5.000000 0.000000
3.666667 5.000000 0.000000
3.833333 5.000000 0.000000
3.166667 6.000000 0.000000
3.333333 6.000000 0.000000
3.500000 6.000000 0.000000
3.666667 6.000000 0.000000
3.833333 6.000000 0.000000
4.000000 5.166667 0.000000
4.000000 5.333333 0.000000
4.000000 5.500000 0.000000
4.000000 5.666667 0.000000
4.000000 5.833333 0.000000
3.613228 5.549603 0.000000
3.398223 5.353651 0.000000
3.724591 5.693117 0.000000
3.704494 5.276546 0.000000
3.767554 5.865918 0.000000
3.759088 5.131628 0.000000
3.344099 5.519490 0.000000
3.767522 5.501245 0.000000
3.519576 5.702841 0.000000
3.534075 5.300471 0.000000
3.460008 5.590314 0.000000
3.513802 5.433983 0.000000
3.583568 5.838150 0.000000
3.581911 5.153052 0.000000
3.884224 5.763208 0.000000
3.865916 5.255897 0.000000
3.224137 5.842504 0.000000
3.262220 5.373387 0.000000
3.217359 5.658551 0.000000
3.661897 5.412518 0.000000
3.206588 5.510700 0.000000
3.110924 5.583696 0.000000
3.122989 5.419394 0.000000
3.378673 5.189552 0.000000
3.411659 5.854858 0.000000
3.780369 5.374342 0.000000
3.879726 5.591624 0.000000
3.159112 5.236566 0.000000
3.897022 5.892492 0.000000
3.891774 5.106594 0.000000
3.109067 5.749262 0.000000
3.882255 5.426074 0.000000
3.362806 5.694760 0.000000
3.099974 5.885020 0.000000
3.224224 5.101890 0.000000
3.110000 5.101025 0.000000
CELLS 94 376 
3 13 29 12
3 28 18 17
3 24 31 26
3 26 32 24
3 34 24 32
3 35 25 33
3 25 35 30
3 17 36 28
3 36 26 28
3 37 12 29
3 27 37 29
3 38 22 23
3 40 15 14
3 24 43 31
3 27 43 33
3 34 35 24
3 34 30 35
3 35 43 24
3 35 33 43
3 16 36 17
3 32 26 36
3 37 11 12
3 27 33 37
3 20 39 19
3 29 39 27
3 25 30 41
3 26 38 28
3 42 44 30
3 44 41 30
3 6 45  7
3 42 45 44
3 46  6  5
3 46 41 44
3 47 25 41
3 49 31 43
3 22 50 21
3 50 22 38
3 18 52  3
3 52 23  3
3 53 13  2
3 19 53  2
3 4 51  5
3 49 27 39
3 43 27 49
3 51 46  5
3 41 46 51
3 50 26 31
3 38 26 50
3 46 45  6
3 44 45 46
3 41 51 47
3 23 52 38
3 52 28 38
3 28 52 18
3 53 19 39
3 29 53 39
3 53 29 13
3 11 47 10
3 47 33 25
3 47 11 37
3 37 33 47
3 15 40 48
3 48 16 15
3 16 48 36
3 32 36 48
3 54  8  7
3 54 42 40
3 21 55 20
3 49 55 31
3 42 56 40
3 56 48 40
3 8 57  1
3 14 57 40
3 57 14  1
3 45 54  7
3 45 42 54
3 55 39 20
3 49 39 55
3 54 57  8
3 54 40 57
3 50 55 21
3 50 31 55
3 34 56 30
3 42 30 56
3 56 34 32
3 32 48 56
3 58  9 10
3 58 47 51
3 47 58 10
3 59  4  0
3 9 59  0
3 59  9 58
3 51 59 58
3 59 51  4
CELL_TYPES 94
5 5 5 5 5 5 5 5 5 5 5 5 5 5 5 5 5 5 5 5 5 5 5 5 5 5 5 5 5 5 5 5 5 5 5 5 5 5 5 5 5 5 5 5 5 5 5 5 5 5 5 5 5 5 5 5 5 5 5 5 5 5 5 5 5 5 5 5 5 5 5 5 5 5 5 5 5 5 5 5 5 5 5 5 5 5 5 5 5 5 5 5 5 5 
POINT_DATA 60
VECTORS displacement_ITER1 FLOAT
 1.111568e-02  -1.502215e-02  0 
 1.615679e-02  -1.559105e-02  0 
 1.164763e-02  -2.019385e-02  0 
 1.623528e-02  -2.028293e-02  0 
 1.214194e-02  -1.523824e-02  0 
 1.301390e-02  -1.536918e-02  0 
 1.382447e-02  -1.546421e-02  0 
 1.461731e-02  -1.552474e-02  0 
 1.539536e-02  -1.556445e-02  0 
 1.123745e-02  -1.609763e-02  0 
 1.134705e-02  -1.701020e-02  0 
 1.141180e-02  -1.785924e-02  0 
 1.147509e-02  -1.866697e-02  0 
 1.155116e-02  -1.944063e-02  0 
 1.618170e-02  -1.634998e-02  0 
 1.620452e-02  -1.712247e-02  0 
 1.622259e-02  -1.790783e-02  0 
 1.623552e-02  -1.870238e-02  0 
 1.624164e-02  -1.950202e-02  0 
 1.230842e-02  -2.022769e-02  0 
 1.306072e-02  -2.026455e-02  0 
 1.385094e-02  -2.028276e-02  0 
 1.465129e-02  -2.029512e-02  0 
 1.545475e-02  -2.030126e-02  0 
 1.409162e-02  -1.843786e-02  0 
 1.315540e-02  -1.739877e-02  0 
 1.477462e-02  -1.896805e-02  0 
 1.278927e-02  -1.889426e-02  0 
 1.560162e-02  -1.918081e-02  0 
 1.212383e-02  -1.914571e-02  0 
 1.395660e-02  -1.713375e-02  0 
 1.385458e-02  -1.917988e-02  0 
 1.482195e-02  -1.798365e-02  0 
 1.289688e-02  -1.807339e-02  0 
 1.429038e-02  -1.769674e-02  0 
 1.354274e-02  -1.796486e-02  0 
 1.546227e-02  -1.829406e-02  0 
 1.218968e-02  -1.829884e-02  0 
 1.511361e-02  -1.973874e-02  0 
 1.269790e-02  -1.964656e-02  0 
 1.546061e-02  -1.659469e-02  0 
 1.325173e-02  -1.671626e-02  0 
 1.460399e-02  -1.654190e-02  0 
 1.343497e-02  -1.868333e-02  0 
 1.390690e-02  -1.646468e-02  0 
 1.424162e-02  -1.602303e-02  0 
 1.346137e-02  -1.602959e-02  0 
 1.233613e-02  -1.729860e-02  0 
 1.553206e-02  -1.747746e-02  0 
 1.325143e-02  -1.924715e-02  0 
 1.428675e-02  -1.971402e-02  0 
 1.255716e-02  -1.615589e-02  0 
 1.573418e-02  -1.980559e-02  0 
 1.204388e-02  -1.975379e-02  0 
 1.501770e-02  -1.604916e-02  0 
 1.349479e-02  -1.972276e-02  0 
 1.478018e-02  -1.723511e-02  0 
 1.564374e-02  -1.602742e-02  0 
 1.184648e-02  -1.647318e-02  0 
 1.181113e-02  -1.582594e-02  0 
VECTORS displacement_ITER2 FLOAT
 7.895018e-03  -1.133202e-02  0 
 1.186509e-02  -1.195405e-02  0 
 8.550365e-03  -1.532304e-02  0 
 1.194412e-02  -1.552399e-02  0 
 8.788626e-03  -1.160942e-02  0 
 9.472353e-03  -1.174598e-02  0 
 1.010246e-02  -1.183229e-02  0 
 1.070843e-02  -1.188441e-02  0 
 1.129232e-02  -1.192295e-02  0 
 8.051292e-03  -1.228733e-02  0 
 8.179519e-03  -1.301234e-02  0 
 8.250392e-03  -1.366802e-02  0 
 8.326428e-03  -1.427420e-02  0 
 8.419361e-03  -1.483463e-02  0 
 1.188907e-02  -1.251977e-02  0 
 1.191075e-02  -1.310261e-02  0 
 1.192684e-02  -1.370051e-02  0 
 1.193782e-02  -1.430696e-02  0 
 1.194375e-02  -1.491880e-02  0 
 8.963447e-03  -1.541367e-02  0 
 9.520633e-03  -1.548149e-02  0 
 1.011480e-02  -1.551917e-02  0 
 1.072494e-02  -1.552729e-02  0 
 1.133832e-02  -1.552950e-02  0 
 1.029878e-02  -1.410900e-02  0 
 9.587755e-03  -1.332222e-02  0 
 1.082093e-02  -1.451221e-02  0 
 9.305466e-03  -1.446187e-02  0 
 1.145288e-02  -1.467306e-02  0 
 8.815758e-03  -1.464435e-02  0 
 1.020232e-02  -1.311306e-02  0 
 1.011510e-02  -1.467517e-02  0 
 1.085933e-02  -1.375895e-02  0 
 9.387005e-03  -1.384253e-02  0 
 1.045444e-02  -1.354201e-02  0 
 9.881346e-03  -1.375267e-02  0 
 1.134735e-02  -1.399508e-02  0 
 8.852057e-03  -1.401413e-02  0 
 1.107894e-02  -1.510102e-02  0 
 9.239127e-03  -1.501442e-02  0 
 1.134676e-02  -1.270013e-02  0 
 9.664710e-03  -1.279351e-02  0 
 1.069685e-02  -1.265964e-02  0 
 9.794921e-03  -1.429988e-02  0 
 1.016555e-02  -1.260121e-02  0 
 1.042205e-02  -1.226319e-02  0 
 9.823752e-03  -1.226498e-02  0 
 8.954033e-03  -1.325099e-02  0 
 1.140083e-02  -1.337172e-02  0 
 9.653736e-03  -1.472507e-02  0 
 1.044695e-02  -1.508386e-02  0 
 9.126053e-03  -1.235262e-02  0 
 1.155338e-02  -1.515056e-02  0 
 8.771260e-03  -1.507888e-02  0 
 1.101121e-02  -1.228467e-02  0 
 9.840429e-03  -1.508646e-02  0 
 1.082930e-02  -1.318788e-02  0 
 1.148267e-02  -1.227396e-02  0 
 8.561506e-03  -1.260335e-02  0 
 8.528391e-03  -1.207776e-02  0 
VECTORS displacement_ITER3 FLOAT
 6.450725e-03  -9.304651e-03  0 
 1.038485e-02  -9.940823e-03  0 
 7.165767e-03  -1.320464e-02  0 
 1.046576e-02  -1.346237e-02  0 
 7.359754e-03  -9.602494e-03  0 
 8.037804e-03  -9.742467e-03  0 
 8.652109e-03  -9.829826e-03  0 
 9.244645e-03  -9.877276e-03  0 
 9.824238e-03  -9.910474e-03  0 
 6.626159e-03  -1.026895e-02  0 
 6.762400e-03  -1.098453e-02  0 
 6.838601e-03  -1.163090e-02  0 
 6.919036e-03  -1.222685e-02  0 
 7.017766e-03  -1.276635e-02  0 
 1.040816e-02  -1.049638e-02  0 
 1.042732e-02  -1.107056e-02  0 
 1.044238e-02  -1.165787e-02  0 
 1.045351e-02  -1.225387e-02  0 
 1.046125e-02  -1.285735e-02  0 
 7.538329e-03  -1.332461e-02  0 
 8.077879e-03  -1.340077e-02  0 
 8.659842e-03  -1.344113e-02  0 
 9.259418e-03  -1.345215e-02  0 
 9.863728e-03  -1.345759e-02  0 
 8.841361e-03  -1.206065e-02  0 
 8.146831e-03  -1.129242e-02  0 
 9.353588e-03  -1.245547e-02  0 
 7.868633e-03  -1.240834e-02  0 
 9.975560e-03  -1.261382e-02  0 
 7.393269e-03  -1.258722e-02  0 
 8.749302e-03  -1.108419e-02  0 
 8.660037e-03  -1.261527e-02  0 
 9.392592e-03  -1.171631e-02  0 
 7.949121e-03  -1.180391e-02  0 
 8.995622e-03  -1.150442e-02  0 
 8.433106e-03  -1.171318e-02  0 
 9.872068e-03  -1.194736e-02  0 
 7.427987e-03  -1.197301e-02  0 
 9.607363e-03  -1.303451e-02  0 
 7.802633e-03  -1.294488e-02  0 
 9.873321e-03  -1.067683e-02  0 
 8.223476e-03  -1.077250e-02  0 
 9.234375e-03  -1.063862e-02  0 
 8.346868e-03  -1.224889e-02  0 
 8.713969e-03  -1.058134e-02  0 
 8.964189e-03  -1.024984e-02  0 
 8.380755e-03  -1.025194e-02  0 
 7.525364e-03  -1.122532e-02  0 
 9.925367e-03  -1.133570e-02  0 
 8.207995e-03  -1.266385e-02  0 
 8.985675e-03  -1.301600e-02  0 
 7.695084e-03  -1.034030e-02  0 
 1.007489e-02  -1.308523e-02  0 
 7.352257e-03  -1.300387e-02  0 
 9.543656e-03  -1.027032e-02  0 
 8.390543e-03  -1.301688e-02  0 
 9.363881e-03  -1.115646e-02  0 
 1.000953e-02  -1.025566e-02  0 
 7.135642e-03  -1.058670e-02  0 
 7.100760e-03  -1.006732e-02  0 
VECTORS displacement_ITER4 FLOAT
 5.633985e-03  -8.598078e-03  0 
 9.510718e-03  -9.226112e-03  0 
 6.388245e-03  -1.238540e-02  0 
 9.596144e-03  -1.268797e-02  0 
 6.541639e-03  -8.894265e-03  0 
 7.209915e-03  -9.033261e-03  0 
 7.812162e-03  -9.118894e-03  0 
 8.394655e-03  -9.167698e-03  0 
 8.963113e-03  -9.200357e-03  0 
 5.819374e-03  -9.548051e-03  0 
 5.959795e-03  -1.025150e-02  0 
 6.040083e-03  -1.088382e-02  0 
 6.123272e-03  -1.146605e-02  0 
 6.227840e-03  -1.198815e-02  0 
 9.533238e-03  -9.771678e-03  0 
 9.551802e-03  -1.033395e-02  0 
 9.566778e-03  -1.090962e-02  0 
 9.578504e-03  -1.149460e-02  0 
 9.588017e-03  -1.208851e-02  0 
 6.726107e-03  -1.252696e-02  0 
 7.249914e-03  -1.261035e-02  0 
 7.818238e-03  -1.265338e-02  0 
 8.404394e-03  -1.267134e-02  0 
 8.998841e-03  -1.267899e-02  0 
 7.994923e-03  -1.130612e-02  0 
 7.316025e-03  -1.055657e-02  0 
 8.496773e-03  -1.169208e-02  0 
 7.044590e-03  -1.164574e-02  0 
 9.108714e-03  -1.184766e-02  0 
 6.584056e-03  -1.181927e-02  0 
 7.907074e-03  -1.035096e-02  0 
 7.816478e-03  -1.184862e-02  0 
 8.536376e-03  -1.096769e-02  0 
 7.122340e-03  -1.105747e-02  0 
 8.147461e-03  -1.076136e-02  0 
 7.595822e-03  -1.096756e-02  0 
 9.006850e-03  -1.119335e-02  0 
 6.615605e-03  -1.122125e-02  0 
 8.746219e-03  -1.226126e-02  0 
 6.980126e-03  -1.216540e-02  0 
 9.009190e-03  -9.948756e-03  0 
 7.391451e-03  -1.004679e-02  0 
 8.383699e-03  -9.913126e-03  0 
 7.510524e-03  -1.149090e-02  0 
 7.873350e-03  -9.857926e-03  0 
 8.119263e-03  -9.532548e-03  0 
 7.546239e-03  -9.534267e-03  0 
 6.707067e-03  -1.049206e-02  0 
 9.059548e-03  -1.059397e-02  0 
 7.375226e-03  -1.189422e-02  0 
 8.135186e-03  -1.224140e-02  0 
 6.872511e-03  -9.623045e-03  0 
 9.207058e-03  -1.231187e-02  0 
 6.546367e-03  -1.221943e-02  0 
 8.687465e-03  -9.552185e-03  0 
 7.554146e-03  -1.223871e-02  0 
 8.509302e-03  -1.041952e-02  0 
 9.142968e-03  -9.536311e-03  0 
 6.322000e-03  -9.864522e-03  0 
 6.284722e-03  -9.355060e-03  0 
VECTORS displacement_ITER5 FLOAT
 5.235255e-03  -8.416871e-03  0 
 9.092955e-03  -9.043534e-03  0 
 6.008044e-03  -1.216567e-02  0 
 9.178081e-03  -1.247827e-02  0 
 6.143514e-03  -8.709577e-03  0 
 6.808781e-03  -8.850747e-03  0 
 7.409210e-03  -8.934755e-03  0 
 7.987682e-03  -8.982838e-03  0 
 8.550015e-03  -9.016689e-03  0 
 5.424829e-03  -9.358491e-03  0 
 5.567289e-03  -1.005979e-02  0 
 5.649024e-03  -1.068680e-02  0 
 5.734438e-03  -1.126324e-02  0 
 5.843694e-03  -1.177905e-02  0 
 9.115517e-03  -9.583405e-03  0 
 9.134183e-03  -1.014053e-02  0 
 9.148848e-03  -1.071182e-02  0 
 9.160234e-03  -1.129256e-02  0 
 9.169719e-03  -1.188247e-02  0 
 6.334119e-03  -1.231182e-02  0 
 6.850309e-03  -1.239856e-02  0 
 7.413533e-03  -1.244070e-02  0 
 7.993838e-03  -1.246071e-02  0 
 8.584211e-03  -1.246914e-02  0 
 7.588418e-03  -1.110721e-02  0 
 6.915067e-03  -1.036430e-02  0 
 8.085945e-03  -1.148933e-02  0 
 6.646600e-03  -1.144424e-02  0 
 8.693558e-03  -1.164326e-02  0 
 6.191886e-03  -1.161563e-02  0 
 7.501964e-03  -1.015964e-02  0 
 7.411129e-03  -1.164510e-02  0 
 8.126065e-03  -1.077063e-02  0 
 6.722990e-03  -1.086152e-02  0 
 7.740249e-03  -1.056654e-02  0 
 7.192713e-03  -1.077193e-02  0 
 8.592833e-03  -1.099389e-02  0 
 6.221060e-03  -1.102319e-02  0 
 8.333252e-03  -1.205397e-02  0 
 6.582974e-03  -1.195786e-02  0 
 8.596364e-03  -9.758554e-03  0 
 6.989928e-03  -9.858109e-03  0 
 7.975825e-03  -9.723839e-03  0 
 7.107985e-03  -1.129091e-02  0 
 7.468832e-03  -9.669998e-03  0 
 7.713818e-03  -9.345899e-03  0 
 7.143749e-03  -9.348846e-03  0 
 6.310000e-03  -1.030033e-02  0 
 8.645709e-03  -1.039893e-02  0 
 6.974174e-03  -1.168990e-02  0 
 7.726838e-03  -1.203417e-02  0 
 6.473754e-03  -9.436898e-03  0 
 8.791206e-03  -1.210429e-02  0 
 6.156809e-03  -1.200922e-02  0 
 8.277616e-03  -9.364856e-03  0 
 7.151705e-03  -1.203072e-02  0 
 8.099879e-03  -1.022654e-02  0 
 8.728722e-03  -9.349997e-03  0 
 5.925757e-03  -9.676089e-03  0 
 5.886549e-03  -9.169963e-03  0 
VECTORS displacement_ITER6 FLOAT
 4.966239e-03  -8.199626e-03  0 
 8.887658e-03  -8.820033e-03  0 
 5.753777e-03  -1.199039e-02  0 
 8.970448e-03  -1.231297e-02  0 
 5.889533e-03  -8.490207e-03  0 
 6.564650e-03  -8.630585e-03  0 
 7.174832e-03  -8.714448e-03  0 
 7.762383e-03  -8.760905e-03  0 
 8.333802e-03  -8.793391e-03  0 
 5.160216e-03  -9.147674e-03  0 
 5.304738e-03  -9.858338e-03  0 
 5.387124e-03  -1.049366e-02  0 
 5.474428e-03  -1.107754e-02  0 
 5.586136e-03  -1.160030e-02  0 
 8.909228e-03  -9.370048e-03  0 
 8.927186e-03  -9.936930e-03  0 
 8.941279e-03  -1.051769e-02  0 
 8.952268e-03  -1.110776e-02  0 
 8.961588e-03  -1.170690e-02  0 
 6.082902e-03  -1.214057e-02  0 
 6.605576e-03  -1.223034e-02  0 
 7.177290e-03  -1.227432e-02  0 
 7.767433e-03  -1.229391e-02  0 
 8.366127e-03  -1.230290e-02  0 
 7.354984e-03  -1.092023e-02  0 
 6.671238e-03  -1.016662e-02  0 
 7.860499e-03  -1.130824e-02  0 
 6.398766e-03  -1.126217e-02  0 
 8.477823e-03  -1.146426e-02  0 
 5.938085e-03  -1.143552e-02  0 
 7.267304e-03  -9.958272e-03  0 
 7.175016e-03  -1.146597e-02  0 
 7.901450e-03  -1.057832e-02  0 
 6.476231e-03  -1.067111e-02  0 
 7.509352e-03  -1.037126e-02  0 
 6.953058e-03  -1.058004e-02  0 
 8.375838e-03  -1.080483e-02  0 
 5.967173e-03  -1.083501e-02  0 
 8.111614e-03  -1.188154e-02  0 
 6.334349e-03  -1.178290e-02  0 
 8.380492e-03  -9.549169e-03  0 
 6.747359e-03  -9.653192e-03  0 
 7.749265e-03  -9.514541e-03  0 
 6.867046e-03  -1.110659e-02  0 
 7.234165e-03  -9.460937e-03  0 
 7.483470e-03  -9.130994e-03  0 
 6.904417e-03  -9.135734e-03  0 
 6.057085e-03  -1.010211e-02  0 
 8.430062e-03  -1.020023e-02  0 
 6.731120e-03  -1.151149e-02  0 
 7.495996e-03  -1.186103e-02  0 
 6.223390e-03  -9.227095e-03  0 
 8.576707e-03  -1.193229e-02  0 
 5.903028e-03  -1.183390e-02  0 
 8.056435e-03  -9.148752e-03  0 
 6.911295e-03  -1.185749e-02  0 
 7.875114e-03  -1.002553e-02  0 
 8.515707e-03  -9.133120e-03  0 
 5.667344e-03  -9.469919e-03  0 
 5.626914e-03  -8.958644e-03  0 
VECTORS displacement_ITER7 FLOAT
 4.867771e-03  -8.124944e-03  0 
 8.836911e-03  -8.746139e-03  0 
 5.668305e-03  -1.195254e-02  0 
 8.918978e-03  -1.227957e-02  0 
 5.804153e-03  -8.414868e-03  0 
 6.487318e-03  -8.556075e-03  0 
 7.103978e-03  -8.641401e-03  0 
 7.698077e-03  -8.687429e-03  0 
 8.277033e-03  -8.719390e-03  0 
 5.065858e-03  -9.080050e-03  0 
 5.212729e-03  -9.798063e-03  0 
 5.296331e-03  -1.044011e-02  0 
 5.385172e-03  -1.103031e-02  0 
 5.498352e-03  -1.155815e-02  0 
 8.858610e-03  -9.302590e-03  0 
 8.876261e-03  -9.876367e-03  0 
 8.890136e-03  -1.046385e-02  0 
 8.900991e-03  -1.106066e-02  0 
 8.910282e-03  -1.166669e-02  0 
 6.000333e-03  -1.210420e-02  0 
 6.527902e-03  -1.219514e-02  0 
 7.105741e-03  -1.224008e-02  0 
 7.702699e-03  -1.225964e-02  0 
 8.308077e-03  -1.226960e-02  0 
 7.285542e-03  -1.087153e-02  0 
 6.594275e-03  -1.011003e-02  0 
 7.796663e-03  -1.126366e-02  0 
 6.318927e-03  -1.121724e-02  0 
 8.421007e-03  -1.142131e-02  0 
 5.853661e-03  -1.139217e-02  0 
 7.197144e-03  -9.898962e-03  0 
 7.103536e-03  -1.142305e-02  0 
 7.838292e-03  -1.052565e-02  0 
 6.397064e-03  -1.062008e-02  0 
 7.441811e-03  -1.031645e-02  0 
 6.879192e-03  -1.052783e-02  0 
 8.318047e-03  -1.075450e-02  0 
 5.882722e-03  -1.078554e-02  0 
 8.050536e-03  -1.184324e-02  0 
 6.253996e-03  -1.174330e-02  0 
 8.323360e-03  -9.484488e-03  0 
 6.671352e-03  -9.590895e-03  0 
 7.684710e-03  -9.449909e-03  0 
 6.792193e-03  -1.106002e-02  0 
 7.163829e-03  -9.395834e-03  0 
 7.415846e-03  -9.062105e-03  0 
 6.830695e-03  -9.067161e-03  0 
 5.973076e-03  -1.004508e-02  0 
 8.373159e-03  -1.014305e-02  0 
 6.654794e-03  -1.146917e-02  0 
 7.428152e-03  -1.182227e-02  0 
 6.141373e-03  -9.160617e-03  0 
 8.521016e-03  -1.189473e-02  0 
 5.818628e-03  -1.179455e-02  0 
 7.995659e-03  -9.079707e-03  0 
 6.836805e-03  -1.181869e-02  0 
 7.811840e-03  -9.966666e-03  0 
 8.460672e-03  -9.063087e-03  0 
 5.578498e-03  -9.406266e-03  0 
 5.536968e-03  -8.890320e-03  0 
VECTORS displacement_ITER8 FLOAT
 4.872385e-03  -8.138133e-03  0 
 8.807757e-03  -8.756417e-03  0 
 5.681867e-03  -1.191900e-02  0 
 8.890155e-03  -1.225365e-02  0 
 5.805411e-03  -8.426032e-03  0 
 6.482770e-03  -8.566876e-03  0 
 7.093451e-03  -8.652281e-03  0 
 7.681427e-03  -8.698670e-03  0 
 8.254105e-03  -8.730557e-03  0 
 5.072741e-03  -9.085470e-03  0 
 5.220529e-03  -9.796601e-03  0 
 5.305156e-03  -1.043219e-02  0 
 5.395046e-03  -1.101548e-02  0 
 5.509222e-03  -1.153523e-02  0 
 8.829268e-03  -9.307112e-03  0 
 8.846880e-03  -9.874656e-03  0 
 8.860774e-03  -1.045598e-02  0 
 8.871703e-03  -1.104671e-02  0 
 8.881135e-03  -1.164670e-02  0 
 6.003013e-03  -1.207410e-02  0 
 6.523917e-03  -1.216642e-02  0 
 7.094717e-03  -1.221362e-02  0 
 7.685313e-03  -1.223380e-02  0 
 8.284824e-03  -1.224357e-02  0 
 7.272393e-03  -1.085960e-02  0 
 6.588645e-03  -1.010686e-02  0 
 7.778375e-03  -1.124752e-02  0 
 6.316390e-03  -1.120155e-02  0 
 8.396607e-03  -1.140362e-02  0 
 5.857684e-03  -1.137360e-02  0 
 7.185517e-03  -9.897444e-03  0 
 7.092051e-03  -1.140521e-02  0 
 7.819745e-03  -1.051710e-02  0 
 6.393386e-03  -1.061170e-02  0 
 7.427389e-03  -1.031032e-02  0 
 6.870431e-03  -1.052000e-02  0 
 8.294590e-03  -1.074353e-02  0 
 5.885344e-03  -1.077492e-02  0 
 8.029789e-03  -1.182135e-02  0 
 6.252629e-03  -1.172011e-02  0 
 8.299835e-03  -9.486897e-03  0 
 6.665092e-03  -9.592868e-03  0 
 7.668187e-03  -9.452811e-03  0 
 6.784061e-03  -1.104631e-02  0 
 7.152785e-03  -9.399415e-03  0 
 7.402261e-03  -9.069095e-03  0 
 6.823035e-03  -9.073827e-03  0 
 5.973518e-03  -1.004296e-02  0 
 8.349114e-03  -1.013844e-02  0 
 6.648210e-03  -1.145046e-02  0 
 7.413469e-03  -1.180050e-02  0 
 6.139933e-03  -9.166633e-03  0 
 8.495722e-03  -1.187233e-02  0 
 5.824173e-03  -1.176970e-02  0 
 7.975811e-03  -9.086666e-03  0 
 6.828308e-03  -1.179608e-02  0 
 7.793739e-03  -9.964008e-03  0 
 8.435583e-03  -9.070173e-03  0 
 5.581560e-03  -9.409919e-03  0 
 5.539503e-03  -8.898918e-03  0 
VECTORS displacement_ITER9 FLOAT
 4.868008e-03  -8.144662e-03  0 
 8.791705e-03  -8.759543e-03  0 
 5.681219e-03  -1.190549e-02  0 
 8.873159e-03  -1.224442e-02  0 
 5.799319e-03  -8.430850e-03  0 
 6.474655e-03  -8.571518e-03  0 
 7.083590e-03  -8.655786e-03  0 
 7.669299e-03  -8.701861e-03  0 
 8.239765e-03  -8.733694e-03  0 
 5.069170e-03  -9.087940e-03  0 
 5.216921e-03  -9.796388e-03  0 
 5.302035e-03  -1.042985e-02  0 
 5.392137e-03  -1.101069e-02  0 
 5.507166e-03  -1.152693e-02  0 
 8.813040e-03  -9.308306e-03  0 
 8.830584e-03  -9.873856e-03  0 
 8.844423e-03  -1.045327e-02  0 
 8.855335e-03  -1.104217e-02  0 
 8.864677e-03  -1.164019e-02  0 
 5.997491e-03  -1.206275e-02  0 
 6.515614e-03  -1.215634e-02  0 
 7.084417e-03  -1.220419e-02  0 
 7.672881e-03  -1.222526e-02  0 
 8.270928e-03  -1.223488e-02  0 
 7.261146e-03  -1.085548e-02  0 
 6.580003e-03  -1.010596e-02  0 
 7.765563e-03  -1.124200e-02  0 
 6.308823e-03  -1.119609e-02  0 
 8.381884e-03  -1.139786e-02  0 
 5.852533e-03  -1.136730e-02  0 
 7.174741e-03  -9.897032e-03  0 
 7.081352e-03  -1.139901e-02  0 
 7.806776e-03  -1.051422e-02  0 
 6.385458e-03  -1.060891e-02  0 
 7.415711e-03  -1.030827e-02  0 
 6.860663e-03  -1.051736e-02  0 
 8.280071e-03  -1.073987e-02  0 
 5.879790e-03  -1.077142e-02  0 
 8.016427e-03  -1.181397e-02  0 
 6.245282e-03  -1.171191e-02  0 
 8.285425e-03  -9.487449e-03  0 
 6.656213e-03  -9.593881e-03  0 
 7.655964e-03  -9.453596e-03  0 
 6.774504e-03  -1.104154e-02  0 
 7.142278e-03  -9.400750e-03  0 
 7.391113e-03  -9.071192e-03  0 
 6.813707e-03  -9.076501e-03  0 
 5.967214e-03  -1.004256e-02  0 
 8.334453e-03  -1.013679e-02  0 
 6.639214e-03  -1.144382e-02  0 
 7.401770e-03  -1.179303e-02  0 
 6.132876e-03  -9.169351e-03  0 
 8.480809e-03  -1.186508e-02  0 
 5.819745e-03  -1.176056e-02  0 
 7.962558e-03  -9.088561e-03  0 
 6.818705e-03  -1.178802e-02  0 
 7.780956e-03  -9.963045e-03  0 
 8.420697e-03  -9.072216e-03  0 
 5.576194e-03  -9.411623e-03  0 
 5.533872e-03  -8.902775e-03  0 
VECTORS displacement_ITER10 FLOAT
 4.873165e-03  -8.159043e-03  0 
 8.771541e-03  -8.772971e-03  0 
 5.685922e-03  -1.189269e-02  0 
 8.853130e-03  -1.223402e-02  0 
 5.799824e-03  -8.445443e-03  0 
 6.470882e-03  -8.585555e-03  0 
 7.075560e-03  -8.669496e-03  0 
 7.657192e-03  -8.715351e-03  0 
 8.223426e-03  -8.747065e-03  0 
 5.074088e-03  -9.098477e-03  0 
 5.221618e-03  -9.802350e-03  0 
 5.306593e-03  -1.043151e-02  0 
 5.396441e-03  -1.100808e-02  0 
 5.511608e-03  -1.151994e-02  0 
 8.792779e-03  -9.317729e-03  0 
 8.810301e-03  -9.879228e-03  0 
 8.824128e-03  -1.045459e-02  0 
 8.835043e-03  -1.103942e-02  0 
 8.844431e-03  -1.163337e-02  0 
 5.997333e-03  -1.205130e-02  0 
 6.511363e-03  -1.214572e-02  0 
 7.076392e-03  -1.219324e-02  0 
 7.660852e-03  -1.221421e-02  0 
 8.254707e-03  -1.222382e-02  0 
 7.251791e-03  -1.085394e-02  0 
 6.575454e-03  -1.010983e-02  0 
 7.752767e-03  -1.123781e-02  0 
 6.306036e-03  -1.119224e-02  0 
 8.364837e-03  -1.139264e-02  0 
 5.853295e-03  -1.136225e-02  0 
 7.166088e-03  -9.902182e-03  0 
 7.073246e-03  -1.139365e-02  0 
 7.793686e-03  -1.051504e-02  0 
 6.382187e-03  -1.060934e-02  0 
 7.405340e-03  -1.031054e-02  0 
 6.854096e-03  -1.051827e-02  0 
 8.263704e-03  -1.073916e-02  0 
 5.880216e-03  -1.077076e-02  0 
 8.001947e-03  -1.180586e-02  0 
 6.242786e-03  -1.170410e-02  0 
 8.268955e-03  -9.495480e-03  0 
 6.651216e-03  -9.601209e-03  0 
 7.643929e-03  -9.461804e-03  0 
 6.768462e-03  -1.103872e-02  0 
 7.133898e-03  -9.409341e-03  0 
 7.380969e-03  -9.082088e-03  0 
 6.807634e-03  -9.087273e-03  0 
 5.966871e-03  -1.004709e-02  0 
 8.317676e-03  -1.014026e-02  0 
 6.634077e-03  -1.143806e-02  0 
 7.391535e-03  -1.178496e-02  0 
 6.131434e-03  -9.179509e-03  0 
 8.463085e-03  -1.185669e-02  0 
 5.821058e-03  -1.175185e-02  0 
 7.948330e-03  -9.099333e-03  0 
 6.812427e-03  -1.177990e-02  0 
 7.768047e-03  -9.967710e-03  0 
 8.403191e-03  -9.083271e-03  0 
 5.578311e-03  -9.420313e-03  0 
 5.536213e-03  -8.914416e-03  0 
VECTORS displacement_ITER11 FLOAT
 4.885589e-03  -8.177243e-03  0 
 8.780396e-03  -8.791329e-03  0 
 5.695467e-03  -1.190988e-02  0 
 8.862834e-03  -1.225087e-02  0 
 5.810800e-03  -8.463610e-03  0 
 6.481096e-03  -8.603300e-03  0 
 7.085277e-03  -8.687439e-03  0 
 7.666966e-03  -8.733357e-03  0 
 8.233144e-03  -8.765127e-03  0 
 5.085595e-03  -9.116235e-03  0 
 5.232569e-03  -9.819642e-03  0 
 5.317159e-03  -1.044860e-02  0 
 5.406837e-03  -1.102504e-02  0 
 5.521757e-03  -1.153703e-02  0 
 8.801962e-03  -9.335435e-03  0 
 8.819564e-03  -9.896654e-03  0 
 8.833455e-03  -1.047176e-02  0 
 8.844426e-03  -1.105632e-02  0 
 8.853903e-03  -1.165006e-02  0 
 6.007680e-03  -1.206834e-02  0 
 6.521638e-03  -1.216250e-02  0 
 7.086461e-03  -1.220981e-02  0 
 7.670775e-03  -1.223060e-02  0 
 8.264316e-03  -1.224022e-02  0 
 7.261888e-03  -1.087085e-02  0 
 6.585780e-03  -1.012686e-02  0 
 7.762625e-03  -1.125460e-02  0 
 6.316411e-03  -1.120905e-02  0 
 8.374413e-03  -1.140937e-02  0 
 5.863618e-03  -1.137908e-02  0 
 7.176155e-03  -9.919454e-03  0 
 7.083437e-03  -1.141038e-02  0 
 7.803491e-03  -1.053212e-02  0 
 6.392612e-03  -1.062619e-02  0 
 7.415326e-03  -1.032767e-02  0 
 6.864347e-03  -1.053523e-02  0 
 8.273306e-03  -1.075617e-02  0 
 5.890658e-03  -1.078766e-02  0 
 8.011688e-03  -1.182244e-02  0 
 6.253155e-03  -1.172093e-02  0 
 8.278503e-03  -9.513068e-03  0 
 6.661458e-03  -9.618430e-03  0 
 7.653729e-03  -9.479460e-03  0 
 6.778766e-03  -1.105552e-02  0 
 7.143887e-03  -9.426852e-03  0 
 7.390768e-03  -9.099923e-03  0 
 6.817686e-03  -9.104803e-03  0 
 5.977487e-03  -1.006400e-02  0 
 8.327216e-03  -1.015754e-02  0 
 6.644385e-03  -1.145484e-02  0 
 7.401574e-03  -1.180155e-02  0 
 6.141972e-03  -9.196816e-03  0 
 8.472618e-03  -1.187326e-02  0 
 5.831227e-03  -1.176867e-02  0 
 7.958062e-03  -9.117197e-03  0 
 6.822661e-03  -1.179663e-02  0 
 7.777822e-03  -9.985061e-03  0 
 8.412692e-03  -9.101046e-03  0 
 5.589349e-03  -9.437551e-03  0 
 5.547545e-03  -8.931933e-03  0 
VECTORS displacement_ITER12 FLOAT
 4.895209e-03  -8.178850e-03  0 
 8.789102e-03  -8.792755e-03  0 
 5.701793e-03  -1.191344e-02  0 
 8.872011e-03  -1.225293e-02  0 
 5.819296e-03  -8.464841e-03  0 
 6.489493e-03  -8.604437e-03  0 
 7.093806e-03  -8.688500e-03  0 
 7.675514e-03  -8.734415e-03  0 
 8.241824e-03  -8.766319e-03  0 
 5.094307e-03  -9.117579e-03  0 
 5.240797e-03  -9.821070e-03  0 
 5.325033e-03  -1.045006e-02  0 
 5.414434e-03  -1.102672e-02  0 
 5.528868e-03  -1.153942e-02  0 
 8.810774e-03  -9.336784e-03  0 
 8.828456e-03  -9.898079e-03  0 
 8.842414e-03  -1.047330e-02  0 
 8.853437e-03  -1.105798e-02  0 
 8.862978e-03  -1.165190e-02  0 
 6.015500e-03  -1.207119e-02  0 
 6.530074e-03  -1.216470e-02  0 
 7.095081e-03  -1.221185e-02  0 
 7.679451e-03  -1.223262e-02  0 
 8.273133e-03  -1.224232e-02  0 
 7.270536e-03  -1.087241e-02  0 
 6.594211e-03  -1.012805e-02  0 
 7.771373e-03  -1.125632e-02  0 
 6.324738e-03  -1.121067e-02  0 
 8.383313e-03  -1.141110e-02  0 
 5.871504e-03  -1.138083e-02  0 
 7.184705e-03  -9.920692e-03  0 
 7.092061e-03  -1.141216e-02  0 
 7.812233e-03  -1.053361e-02  0 
 6.400995e-03  -1.062749e-02  0 
 7.423971e-03  -1.032907e-02  0 
 6.872871e-03  -1.053659e-02  0 
 8.282167e-03  -1.075773e-02  0 
 5.898728e-03  -1.078906e-02  0 
 8.020452e-03  -1.182434e-02  0 
 6.261472e-03  -1.172294e-02  0 
 8.287277e-03  -9.514373e-03  0 
 6.669897e-03  -9.619522e-03  0 
 7.662360e-03  -9.480676e-03  0 
 6.787301e-03  -1.105711e-02  0 
 7.152385e-03  -9.428000e-03  0 
 7.399311e-03  -9.101016e-03  0 
 6.826124e-03  -9.105921e-03  0 
 5.985806e-03  -1.006510e-02  0 
 8.336048e-03  -1.015897e-02  0 
 6.652890e-03  -1.145664e-02  0 
 7.410242e-03  -1.180347e-02  0 
 6.150396e-03  -9.197843e-03  0 
 8.481564e-03  -1.187514e-02  0 
 5.838793e-03  -1.177099e-02  0 
 7.966727e-03  -9.118392e-03  0 
 6.831231e-03  -1.179858e-02  0 
 7.786526e-03  -9.986405e-03  0 
 8.421451e-03  -9.102323e-03  0 
 5.597865e-03  -9.438635e-03  0 
 5.556242e-03  -8.932926e-03  0 
VECTORS displacement_ITER13 FLOAT
 4.895643e-03  -8.177080e-03  0 
 8.794260e-03  -8.790771e-03  0 
 5.699255e-03  -1.191942e-02  0 
 8.877161e-03  -1.225662e-02  0 
 5.819815e-03  -8.462868e-03  0 
 6.490853e-03  -8.602508e-03  0 
 7.096132e-03  -8.686444e-03  0 
 7.678673e-03  -8.732320e-03  0 
 8.245945e-03  -8.764273e-03  0 
 5.094051e-03  -9.116593e-03  0 
 5.240195e-03  -9.821094e-03  0 
 5.324167e-03  -1.045102e-02  0 
 5.413229e-03  -1.102884e-02  0 
 5.527108e-03  -1.154302e-02  0 
 8.815928e-03  -9.335759e-03  0 
 8.833628e-03  -9.898018e-03  0 
 8.847599e-03  -1.047420e-02  0 
 8.858618e-03  -1.105983e-02  0 
 8.868146e-03  -1.165470e-02  0 
 6.015307e-03  -1.207611e-02  0 
 6.531249e-03  -1.216893e-02  0 
 7.097332e-03  -1.221584e-02  0 
 7.682679e-03  -1.223647e-02  0 
 8.277278e-03  -1.224617e-02  0 
 7.273151e-03  -1.087396e-02  0 
 6.595651e-03  -1.012819e-02  0 
 7.774800e-03  -1.125854e-02  0 
 6.325647e-03  -1.121281e-02  0 
 8.387721e-03  -1.141354e-02  0 
 5.871240e-03  -1.138344e-02  0 
 7.187095e-03  -9.920565e-03  0 
 7.094395e-03  -1.141469e-02  0 
 7.815717e-03  -1.053460e-02  0 
 6.402101e-03  -1.062845e-02  0 
 7.426798e-03  -1.032967e-02  0 
 6.874792e-03  -1.053747e-02  0 
 8.286430e-03  -1.075911e-02  0 
 5.898797e-03  -1.079038e-02  0 
 8.024236e-03  -1.182750e-02  0 
 6.262219e-03  -1.172635e-02  0 
 8.291521e-03  -9.513654e-03  0 
 6.671464e-03  -9.618865e-03  0 
 7.665533e-03  -9.479848e-03  0 
 6.789111e-03  -1.105895e-02  0 
 7.154699e-03  -9.427083e-03  0 
 7.402043e-03  -9.099538e-03  0 
 6.827934e-03  -9.104569e-03  0 
 5.986303e-03  -1.006509e-02  0 
 8.340394e-03  -1.015935e-02  0 
 6.654451e-03  -1.145931e-02  0 
 7.413077e-03  -1.180665e-02  0 
 6.151263e-03  -9.196613e-03  0 
 8.486111e-03  -1.187832e-02  0 
 5.838115e-03  -1.177490e-02  0 
 7.970391e-03  -9.116963e-03  0 
 6.833079e-03  -1.180190e-02  0 
 7.789942e-03  -9.986456e-03  0 
 8.425919e-03  -9.100898e-03  0 
 5.598050e-03  -9.437797e-03  0 
 5.556558e-03  -8.931362e-03  0 
VECTORS displacement_ITER14 FLOAT
 4.891552e-03  -8.176763e-03  0 
 8.795130e-03  -8.789768e-03  0 
 5.692391e-03  -1.192636e-02  0 
 8.877664e-03  -1.226146e-02  0 
 5.815773e-03  -8.462324e-03  0 
 6.487622e-03  -8.601777e-03  0 
 7.093785e-03  -8.685622e-03  0 
 7.677442e-03  -8.731510e-03  0 
 8.245784e-03  -8.763416e-03  0 
 5.089312e-03  -9.116902e-03  0 
 5.235116e-03  -9.822281e-03  0 
 5.318868e-03  -1.045325e-02  0 
 5.407611e-03  -1.103223e-02  0 
 5.521013e-03  -1.154766e-02  0 
 8.816763e-03  -9.335891e-03  0 
 8.834425e-03  -9.899206e-03  0 
 8.848358e-03  -1.047639e-02  0 
 8.859333e-03  -1.106300e-02  0 
 8.868783e-03  -1.165877e-02  0 
 6.010756e-03  -1.208206e-02  0 
 6.527897e-03  -1.217449e-02  0 
 7.095103e-03  -1.222110e-02  0 
 7.681546e-03  -1.224153e-02  0 
 8.277026e-03  -1.225118e-02  0 