# vtk DataFile Version 3.1
this is an vtk file created by FEMAC
ASCII
DATASET UNSTRUCTURED_GRID
POINTS 60 FLOAT
5.000000 3.000000 0.000000
5.000000 4.000000 0.000000
6.000000 3.000000 0.000000
6.000000 4.000000 0.000000
5.000000 3.166667 0.000000
5.000000 3.333333 0.000000
5.000000 3.500000 0.000000
5.000000 3.666667 0.000000
5.000000 3.833333 0.000000
5.166667 3.000000 0.000000
5.333333 3.000000 0.000000
5.500000 3.000000 0.000000
5.666667 3.000000 0.000000
5.833333 3.000000 0.000000
5.166667 4.000000 0.000000
5.333333 4.000000 0.000000
5.500000 4.000000 0.000000
5.666667 4.000000 0.000000
5.833333 4.000000 0.000000
6.000000 3.166667 0.000000
6.000000 3.333333 0.000000
6.000000 3.500000 0.000000
6.000000 3.666667 0.000000
6.000000 3.833333 0.000000
5.549603 3.613228 0.000000
5.353651 3.398223 0.000000
5.693117 3.724591 0.000000
5.276546 3.704494 0.000000
5.865918 3.767554 0.000000
5.131628 3.759088 0.000000
5.519490 3.344099 0.000000
5.501245 3.767522 0.000000
5.702841 3.519576 0.000000
5.300471 3.534075 0.000000
5.590314 3.460008 0.000000
5.433983 3.513802 0.000000
5.838150 3.583568 0.000000
5.153052 3.581911 0.000000
5.763208 3.884224 0.000000
5.255897 3.865916 0.000000
5.842504 3.224137 0.000000
5.373387 3.262220 0.000000
5.658551 3.217359 0.000000
5.412518 3.661897 0.000000
5.510700 3.206588 0.000000
5.583696 3.110924 0.000000
5.419394 3.122989 0.000000
5.189552 3.378673 0.000000
5.854858 3.411659 0.000000
5.374342 3.780369 0.000000
5.591624 3.879726 0.000000
5.236566 3.159112 0.000000
5.892492 3.897022 0.000000
5.106594 3.891774 0.000000
5.749262 3.109067 0.000000
5.426074 3.882255 0.000000
5.694760 3.362806 0.000000
5.885020 3.099974 0.000000
5.101890 3.224224 0.000000
5.101025 3.110000 0.000000
CELLS 94 376 
3 29  8  7
3 23 28 22
3 31 24 26
3 32 26 24
3 24 34 32
3 25 35 33
3 35 25 30
3 36 22 28
3 26 36 28
3 7 37 29
3 37 27 29
3 17 38 18
3 20 40 19
3 43 24 31
3 43 27 33
3 35 34 24
3 30 34 35
3 43 35 24
3 33 35 43
3 36 21 22
3 26 32 36
3 6 37  7
3 33 27 37
3 39 15 14
3 39 29 27
3 30 25 41
3 38 26 28
3 44 42 30
3 41 44 30
3 45 11 12
3 45 42 44
3 11 46 10
3 41 46 44
3 25 47 41
3 31 49 43
3 50 17 16
3 17 50 38
3 18 52  3
3 52 23  3
3 8 53  1
3 53 14  1
3 51  9 10
3 27 49 39
3 27 43 49
3 46 51 10
3 46 41 51
3 26 50 31
3 26 38 50
3 45 46 11
3 45 44 46
3 51 41 47
3 52 18 38
3 28 52 38
3 52 28 23
3 14 53 39
3 53 29 39
3 29 53  8
3 47  6  5
3 33 47 25
3 6 47 37
3 33 37 47
3 40 20 48
3 21 48 20
3 48 21 36
3 36 32 48
3 13 54 12
3 42 54 40
3 55 16 15
3 55 49 31
3 56 42 40
3 48 56 40
3 57 13  2
3 57 19 40
3 19 57  2
3 54 45 12
3 42 45 54
3 39 55 15
3 39 49 55
3 57 54 13
3 40 54 57
3 55 50 16
3 31 50 55
3 56 34 30
3 30 42 56
3 34 56 32
3 48 32 56
3 4 58  5
3 47 58 51
3 58 47  5
3 59  4  0
3 9 59  0
3 4 59 58
3 59 51 58
3 51 59  9
CELL_TYPES 94
5 5 5 5 5 5 5 5 5 5 5 5 5 5 5 5 5 5 5 5 5 5 5 5 5 5 5 5 5 5 5 5 5 5 5 5 5 5 5 5 5 5 5 5 5 5 5 5 5 5 5 5 5 5 5 5 5 5 5 5 5 5 5 5 5 5 5 5 5 5 5 5 5 5 5 5 5 5 5 5 5 5 5 5 5 5 5 5 5 5 5 5 5 5 
POINT_DATA 60
VECTORS displacement_ITER1 FLOAT
 3.705358e-03  -2.262821e-02  0 
 8.880400e-03  -2.284566e-02  0 
 3.685626e-03  -2.812027e-02  0 
 8.970142e-03  -2.806988e-02  0 
 4.599850e-03  -2.272706e-02  0 
 5.476697e-03  -2.277719e-02  0 
 6.349944e-03  -2.280551e-02  0 
 7.211081e-03  -2.282506e-02  0 
 8.061154e-03  -2.283877e-02  0 
 3.703125e-03  -2.362533e-02  0 
 3.703139e-03  -2.454459e-02  0 
 3.705638e-03  -2.544434e-02  0 
 3.702743e-03  -2.633443e-02  0 
 3.695503e-03  -2.722131e-02  0 
 8.912289e-03  -2.369598e-02  0 
 8.932551e-03  -2.456396e-02  0 
 8.949567e-03  -2.543676e-02  0 
 8.961283e-03  -2.631397e-02  0 
 8.967962e-03  -2.719228e-02  0 
 4.580627e-03  -2.809888e-02  0 
 5.463818e-03  -2.808157e-02  0 
 6.342813e-03  -2.806707e-02  0 
 7.219686e-03  -2.806077e-02  0 
 8.094443e-03  -2.806309e-02  0 
 6.942044e-03  -2.568303e-02  0 
 5.827143e-03  -2.464876e-02  0 
 7.521435e-03  -2.644180e-02  0 
 7.410675e-03  -2.425259e-02  0 
 7.747813e-03  -2.735586e-02  0 
 7.687147e-03  -2.350403e-02  0 
 5.540443e-03  -2.552898e-02  0 
 7.740322e-03  -2.542984e-02  0 
 6.452673e-03  -2.649593e-02  0 
 6.534231e-03  -2.437238e-02  0 
 6.144345e-03  -2.590167e-02  0 
 6.428005e-03  -2.507398e-02  0 
 6.784998e-03  -2.720935e-02  0 
 6.778776e-03  -2.360724e-02  0 
 8.356877e-03  -2.681693e-02  0 
 8.234829e-03  -2.414800e-02  0 
 4.892010e-03  -2.725604e-02  0 
 5.116493e-03  -2.475065e-02  0 
 4.861944e-03  -2.627836e-02  0 
 7.193316e-03  -2.496148e-02  0 
 4.811474e-03  -2.549134e-02  0 
 4.298007e-03  -2.588681e-02  0 
 4.369006e-03  -2.500750e-02  0 
 5.727114e-03  -2.377942e-02  0 
 5.882616e-03  -2.730678e-02  0 
 7.801979e-03  -2.476347e-02  0 
 8.327392e-03  -2.591102e-02  0 
 4.575239e-03  -2.401062e-02  0 
 8.426971e-03  -2.750007e-02  0 
 8.356267e-03  -2.337660e-02  0 
 4.282162e-03  -2.676715e-02  0 
 8.331331e-03  -2.503980e-02  0 
 5.631083e-03  -2.646141e-02  0 
 4.229430e-03  -2.749111e-02  0 
 4.914768e-03  -2.328896e-02  0 
 4.315629e-03  -2.325471e-02  0 
VECTORS displacement_ITER2 FLOAT
 2.614247e-03  -1.685297e-02  0 
 6.637120e-03  -1.710545e-02  0 
 2.589499e-03  -2.122470e-02  0 
 6.723951e-03  -2.115615e-02  0 
 3.320218e-03  -1.697168e-02  0 
 4.001663e-03  -1.702402e-02  0 
 4.678951e-03  -1.705491e-02  0 
 5.348929e-03  -1.707904e-02  0 
 6.008523e-03  -1.709943e-02  0 
 2.614972e-03  -1.767593e-02  0 
 2.616390e-03  -1.840454e-02  0 
 2.616405e-03  -1.911469e-02  0 
 2.612330e-03  -1.981570e-02  0 
 2.604356e-03  -2.051603e-02  0 
 6.668505e-03  -1.777193e-02  0 
 6.689243e-03  -1.844656e-02  0 
 6.705342e-03  -1.912362e-02  0 
 6.717664e-03  -1.980159e-02  0 
 6.722968e-03  -2.047807e-02  0 
 3.300047e-03  -2.120215e-02  0 
 3.994720e-03  -2.118277e-02  0 
 4.683093e-03  -2.116593e-02  0 
 5.367254e-03  -2.115669e-02  0 
 6.046221e-03  -2.115455e-02  0 
 5.150994e-03  -1.930284e-02  0 
 4.281148e-03  -1.848923e-02  0 
 5.602468e-03  -1.989588e-02  0 
 5.509691e-03  -1.819194e-02  0 
 5.778486e-03  -2.060702e-02  0 
 5.721210e-03  -1.761172e-02  0 
 4.058818e-03  -1.917805e-02  0 
 5.769611e-03  -1.910965e-02  0 
 4.770801e-03  -1.993688e-02  0 
 4.830496e-03  -1.827793e-02  0 
 4.530028e-03  -1.947137e-02  0 
 4.749951e-03  -1.882500e-02  0 
 5.029712e-03  -2.049416e-02  0 
 5.016632e-03  -1.768435e-02  0 
 6.250808e-03  -2.018873e-02  0 
 6.146650e-03  -1.811642e-02  0 
 3.547184e-03  -2.053659e-02  0 
 3.727808e-03  -1.856523e-02  0 
 3.525255e-03  -1.976832e-02  0 
 5.343995e-03  -1.874177e-02  0 
 3.486911e-03  -1.914916e-02  0 
 3.082339e-03  -1.946167e-02  0 
 3.140432e-03  -1.876889e-02  0 
 4.201166e-03  -1.780754e-02  0 
 4.324637e-03  -2.057297e-02  0 
 5.814461e-03  -1.859195e-02  0 
 6.226161e-03  -1.948662e-02  0 
 3.305968e-03  -1.798137e-02  0 
 6.304515e-03  -2.071726e-02  0 
 6.236153e-03  -1.751675e-02  0 
 3.068043e-03  -2.015466e-02  0 
 6.225738e-03  -1.881120e-02  0 
 4.128609e-03  -1.991049e-02  0 
 3.023828e-03  -2.072413e-02  0 
 3.568460e-03  -1.741543e-02  0 
 3.104220e-03  -1.737903e-02  0 
VECTORS displacement_ITER3 FLOAT
 1.804300e-03  -1.527015e-02  0 
 4.993722e-03  -1.548980e-02  0 
 1.784959e-03  -1.877775e-02  0 
 5.079759e-03  -1.873714e-02  0 
 2.364501e-03  -1.538483e-02  0 
 2.907392e-03  -1.543068e-02  0 
 3.444414e-03  -1.545879e-02  0 
 3.974015e-03  -1.547581e-02  0 
 4.498272e-03  -1.549012e-02  0 
 1.802804e-03  -1.594948e-02  0 
 1.801783e-03  -1.653381e-02  0 
 1.797977e-03  -1.710085e-02  0 
 1.797087e-03  -1.766123e-02  0 
 1.793147e-03  -1.821861e-02  0 
 5.023812e-03  -1.602619e-02  0 
 5.046297e-03  -1.656907e-02  0 
 5.061516e-03  -1.711020e-02  0 
 5.070614e-03  -1.765352e-02  0 
 5.074260e-03  -1.819619e-02  0 
 2.345479e-03  -1.876387e-02  0 
 2.898473e-03  -1.874991e-02  0 
 3.448129e-03  -1.873752e-02  0 
 3.994538e-03  -1.873179e-02  0 
 4.536326e-03  -1.873248e-02  0 
 3.819256e-03  -1.724881e-02  0 
 3.128801e-03  -1.659797e-02  0 
 4.180090e-03  -1.772524e-02  0 
 4.102617e-03  -1.636113e-02  0 
 4.321905e-03  -1.829417e-02  0 
 4.269896e-03  -1.589822e-02  0 
 2.951674e-03  -1.714869e-02  0 
 4.311488e-03  -1.709636e-02  0 
 3.517277e-03  -1.775540e-02  0 
 3.564096e-03  -1.642941e-02  0 
 3.325711e-03  -1.738291e-02  0 
 3.500448e-03  -1.686620e-02  0 
 3.724300e-03  -1.820154e-02  0 
 3.711068e-03  -1.595694e-02  0 
 4.697865e-03  -1.796239e-02  0 
 4.608768e-03  -1.630045e-02  0 
 2.541841e-03  -1.823511e-02  0 
 2.689682e-03  -1.665850e-02  0 
 2.525355e-03  -1.762254e-02  0 
 3.971774e-03  -1.680024e-02  0 
 2.496036e-03  -1.712720e-02  0 
 2.172198e-03  -1.737872e-02  0 
 2.219741e-03  -1.682291e-02  0 
 3.066216e-03  -1.605451e-02  0 
 3.161696e-03  -1.826349e-02  0 
 4.345724e-03  -1.668106e-02  0 
 4.677227e-03  -1.740042e-02  0 
 2.355322e-03  -1.619147e-02  0 
 4.742088e-03  -1.838380e-02  0 
 4.677882e-03  -1.582042e-02  0 
 2.160800e-03  -1.793174e-02  0 
 4.675661e-03  -1.685874e-02  0 
 3.005874e-03  -1.773451e-02  0 
 2.126027e-03  -1.838445e-02  0 
 2.563524e-03  -1.573984e-02  0 
 2.197198e-03  -1.570632e-02  0 
VECTORS displacement_ITER4 FLOAT
 1.338423e-03  -1.469224e-02  0 
 4.134138e-03  -1.491503e-02  0 
 1.316756e-03  -1.782004e-02  0 
 4.231003e-03  -1.777777e-02  0 
 1.835537e-03  -1.480674e-02  0 
 2.313591e-03  -1.485368e-02  0 
 2.788461e-03  -1.488341e-02  0 
 3.255295e-03  -1.490267e-02  0 
 3.712811e-03  -1.491619e-02  0 
 1.335679e-03  -1.530585e-02  0 
 1.335721e-03  -1.582922e-02  0 
 1.337662e-03  -1.633162e-02  0 
 1.334234e-03  -1.682581e-02  0 
 1.326372e-03  -1.731783e-02  0 
 4.170418e-03  -1.538647e-02  0 
 4.192651e-03  -1.586126e-02  0 
 4.208147e-03  -1.633702e-02  0 
 4.218867e-03  -1.681603e-02  0 
 4.225263e-03  -1.729574e-02  0 
 1.817126e-03  -1.780116e-02  0 
 2.305827e-03  -1.778531e-02  0 
 2.789980e-03  -1.777232e-02  0 
 3.271235e-03  -1.776691e-02  0 
 3.749289e-03  -1.776941e-02  0 
 3.117807e-03  -1.645847e-02  0 
 2.511447e-03  -1.588544e-02  0 
 3.434562e-03  -1.687830e-02  0 
 3.366770e-03  -1.567713e-02  0 
 3.559378e-03  -1.738115e-02  0 
 3.513219e-03  -1.527103e-02  0 
 2.354643e-03  -1.637139e-02  0 
 3.549947e-03  -1.632350e-02  0 
 2.851822e-03  -1.690610e-02  0 
 2.894922e-03  -1.573726e-02  0 
 2.683819e-03  -1.657777e-02  0 
 2.838323e-03  -1.612177e-02  0 
 3.033407e-03  -1.729937e-02  0 
 3.024180e-03  -1.532271e-02  0 
 3.890833e-03  -1.708770e-02  0 
 3.808780e-03  -1.562375e-02  0 
 1.991951e-03  -1.733169e-02  0 
 2.124881e-03  -1.593873e-02  0 
 1.977335e-03  -1.679001e-02  0 
 3.251996e-03  -1.606301e-02  0 
 1.952091e-03  -1.635374e-02  0 
 1.666052e-03  -1.657544e-02  0 
 1.708482e-03  -1.608667e-02  0 
 2.456595e-03  -1.540561e-02  0 
 2.538427e-03  -1.735520e-02  0 
 3.579464e-03  -1.595798e-02  0 
 3.871678e-03  -1.659162e-02  0 
 1.829861e-03  -1.552357e-02  0 
 3.930489e-03  -1.746166e-02  0 
 3.866698e-03  -1.520161e-02  0 
 1.654625e-03  -1.706294e-02  0 
 3.868994e-03  -1.611480e-02  0 
 2.401766e-03  -1.688865e-02  0 
 1.623305e-03  -1.746518e-02  0 
 2.012595e-03  -1.512289e-02  0 
 1.689299e-03  -1.508880e-02  0 
VECTORS displacement_ITER5 FLOAT
 1.170123e-03  -1.449339e-02  0 
 3.757747e-03  -1.466963e-02  0 
 1.140284e-03  -1.738163e-02  0 
 3.850413e-03  -1.736062e-02  0 
 1.619856e-03  -1.459526e-02  0 
 2.061206e-03  -1.463495e-02  0 
 2.499810e-03  -1.465865e-02  0 
 2.933632e-03  -1.467216e-02  0 
 3.359014e-03  -1.468035e-02  0 
 1.161038e-03  -1.505729e-02  0 
 1.156249e-03  -1.553948e-02  0 
 1.154132e-03  -1.600705e-02  0 
 1.151875e-03  -1.646597e-02  0 
 1.147398e-03  -1.692267e-02  0 
 3.789968e-03  -1.512181e-02  0 
 3.810189e-03  -1.556806e-02  0 
 3.824451e-03  -1.601436e-02  0 
 3.835576e-03  -1.646152e-02  0 
 3.843392e-03  -1.691065e-02  0 
 1.599902e-03  -1.736899e-02  0 
 2.052958e-03  -1.735688e-02  0 
 2.503573e-03  -1.734737e-02  0 
 2.952196e-03  -1.734518e-02  0 
 3.398852e-03  -1.735078e-02  0 
 2.806245e-03  -1.612385e-02  0 
 2.242976e-03  -1.558988e-02  0 
 3.102522e-03  -1.651670e-02  0 
 3.036403e-03  -1.539503e-02  0 
 3.220228e-03  -1.698665e-02  0 
 3.172655e-03  -1.501427e-02  0 
 2.098120e-03  -1.604194e-02  0 
 3.208936e-03  -1.599929e-02  0 
 2.559527e-03  -1.654041e-02  0 
 2.598043e-03  -1.545171e-02  0 
 2.403164e-03  -1.623414e-02  0 
 2.546013e-03  -1.580974e-02  0 
 2.729354e-03  -1.690781e-02  0 
 2.717847e-03  -1.506547e-02  0 
 3.529473e-03  -1.671403e-02  0 
 3.449296e-03  -1.534502e-02  0 
 1.761129e-03  -1.693510e-02  0 
 1.885604e-03  -1.563932e-02  0 
 1.748252e-03  -1.643240e-02  0 
 2.930316e-03  -1.575525e-02  0 
 1.725368e-03  -1.602587e-02  0 
 1.459605e-03  -1.623335e-02  0 
 1.500054e-03  -1.577721e-02  0 
 2.191950e-03  -1.514466e-02  0 
 2.268619e-03  -1.695783e-02  0 
 3.235512e-03  -1.565788e-02  0 
 3.510368e-03  -1.625081e-02  0 
 1.613632e-03  -1.525452e-02  0 
 3.567905e-03  -1.706382e-02  0 
 3.502766e-03  -1.494756e-02  0 
 1.449274e-03  -1.668674e-02  0 
 3.506644e-03  -1.580551e-02  0 
 2.141463e-03  -1.652349e-02  0 
 1.420366e-03  -1.705825e-02  0 
 1.782455e-03  -1.488498e-02  0 
 1.486467e-03  -1.485405e-02  0 
VECTORS displacement_ITER6 FLOAT
 1.007011e-03  -1.433284e-02  0 
 3.533798e-03  -1.448468e-02  0 
 9.728917e-04  -1.715386e-02  0 
 3.628593e-03  -1.713738e-02  0 
 1.444823e-03  -1.442880e-02  0 
 1.875897e-03  -1.446636e-02  0 
 2.305351e-03  -1.448764e-02  0 
 2.730126e-03  -1.449897e-02  0 
 3.147307e-03  -1.450350e-02  0 
 9.963090e-04  -1.488046e-02  0 
 9.917090e-04  -1.535166e-02  0 
 9.896463e-04  -1.580866e-02  0 
 9.856831e-04  -1.625743e-02  0 
 9.801195e-04  -1.670402e-02  0 
 3.569011e-03  -1.493624e-02  0 
 3.588824e-03  -1.537598e-02  0 
 3.602650e-03  -1.581523e-02  0 
 3.613428e-03  -1.625325e-02  0 
 3.621417e-03  -1.669316e-02  0 
 1.423293e-03  -1.714087e-02  0 
 1.866781e-03  -1.712879e-02  0 
 2.307848e-03  -1.712007e-02  0 
 2.747206e-03  -1.711887e-02  0 
 3.184927e-03  -1.712543e-02  0 
 2.603385e-03  -1.592149e-02  0 
 2.052604e-03  -1.539939e-02  0 
 2.894000e-03  -1.630700e-02  0 
 2.828901e-03  -1.520637e-02  0 
 3.009561e-03  -1.676800e-02  0 
 2.962929e-03  -1.483195e-02  0 
 1.910713e-03  -1.584169e-02  0 
 2.998026e-03  -1.579938e-02  0 
 2.362025e-03  -1.632969e-02  0 
 2.399983e-03  -1.526336e-02  0 
 2.209000e-03  -1.602969e-02  0 
 2.348788e-03  -1.561398e-02  0 
 2.528571e-03  -1.668996e-02  0 
 2.517878e-03  -1.488478e-02  0 
 3.313016e-03  -1.650062e-02  0 
 3.233134e-03  -1.515599e-02  0 
 1.581251e-03  -1.671581e-02  0 
 1.703336e-03  -1.544839e-02  0 
 1.568748e-03  -1.622361e-02  0 
 2.724816e-03  -1.555989e-02  0 
 1.546605e-03  -1.582622e-02  0 
 1.286969e-03  -1.602908e-02  0 
 1.326973e-03  -1.558367e-02  0 
 2.003130e-03  -1.496426e-02  0 
 2.077630e-03  -1.673830e-02  0 
 3.023738e-03  -1.546398e-02  0 
 3.294222e-03  -1.604664e-02  0 
 1.438068e-03  -1.507292e-02  0 
 3.350490e-03  -1.684405e-02  0 
 3.285158e-03  -1.476277e-02  0 
 1.276156e-03  -1.647268e-02  0 
 3.290113e-03  -1.560952e-02  0 
 1.953148e-03  -1.631289e-02  0 
 1.247599e-03  -1.683665e-02  0 
 1.603316e-03  -1.471141e-02  0 
 1.313992e-03  -1.468182e-02  0 
VECTORS displacement_ITER7 FLOAT
 9.835632e-04  -1.429992e-02  0 
 3.414094e-03  -1.442036e-02  0 
 9.391289e-04  -1.700986e-02  0 
 3.503550e-03  -1.699745e-02  0 
 1.397410e-03  -1.438629e-02  0 
 1.810883e-03  -1.441892e-02  0 
 2.224137e-03  -1.443736e-02  0 
 2.632664e-03  -1.444562e-02  0 
 3.036018e-03  -1.444675e-02  0 
 9.683627e-04  -1.482041e-02  0 
 9.611298e-04  -1.527226e-02  0 
 9.566411e-04  -1.571171e-02  0 
 9.522746e-04  -1.614421e-02  0 
 9.463537e-04  -1.657505e-02  0 
 3.445710e-03  -1.486682e-02  0 
 3.464510e-03  -1.529401e-02  0 
 3.477477e-03  -1.571910e-02  0 
 3.487428e-03  -1.614277e-02  0 
 3.495582e-03  -1.656749e-02  0 
 1.373871e-03  -1.699653e-02  0 
 1.801628e-03  -1.698490e-02  0 
 2.227174e-03  -1.697727e-02  0 
 2.651253e-03  -1.697716e-02  0 
 3.073954e-03  -1.698460e-02  0 
 2.511013e-03  -1.582046e-02  0 
 1.979895e-03  -1.531622e-02  0 
 2.792205e-03  -1.619350e-02  0 
 2.727834e-03  -1.512921e-02  0 
 2.904250e-03  -1.663891e-02  0 
 2.857054e-03  -1.476645e-02  0 
 1.843504e-03  -1.574265e-02  0 
 2.892085e-03  -1.570326e-02  0 
 2.278656e-03  -1.621427e-02  0 
 2.314154e-03  -1.518475e-02  0 
 2.130876e-03  -1.592438e-02  0 
 2.265132e-03  -1.552320e-02  0 
 2.439776e-03  -1.656256e-02  0 
 2.427856e-03  -1.481893e-02  0 
 3.197349e-03  -1.638113e-02  0 
 3.118819e-03  -1.508045e-02  0 
 1.526239e-03  -1.658628e-02  0 
 1.644062e-03  -1.536349e-02  0 
 1.514177e-03  -1.611121e-02  0 
 2.627691e-03  -1.547117e-02  0 
 1.493088e-03  -1.572779e-02  0 
 1.242835e-03  -1.592376e-02  0 
 1.282042e-03  -1.549408e-02  0 
 1.932337e-03  -1.489747e-02  0 
 2.004742e-03  -1.660835e-02  0 
 2.916524e-03  -1.537868e-02  0 
 3.178812e-03  -1.594283e-02  0 
 1.389720e-03  -1.500274e-02  0 
 3.233821e-03  -1.671283e-02  0 
 3.168935e-03  -1.469797e-02  0 
 1.232126e-03  -1.635160e-02  0 
 3.174652e-03  -1.552004e-02  0 
 1.884533e-03  -1.619755e-02  0 
 1.204518e-03  -1.670303e-02  0 
 1.548572e-03  -1.465573e-02  0 
 1.272188e-03  -1.462842e-02  0 
VECTORS displacement_ITER8 FLOAT
 9.763478e-04  -1.424766e-02  0 
 3.433392e-03  -1.434980e-02  0 
 9.282660e-04  -1.697681e-02  0 
 3.521901e-03  -1.696783e-02  0 
 1.392404e-03  -1.433032e-02  0 
 1.809498e-03  -1.436063e-02  0 
 2.226699e-03  -1.437737e-02  0 
 2.640075e-03  -1.438358e-02  0 
 3.049198e-03  -1.438143e-02  0 
 9.596297e-04  -1.476791e-02  0 
 9.517297e-04  -1.522290e-02  0 
 9.467467e-04  -1.566581e-02  0 
 9.416308e-04  -1.610258e-02  0 
 9.352822e-04  -1.653743e-02  0 
 3.464890e-03  -1.480729e-02  0 
 3.482466e-03  -1.524146e-02  0 
 3.494887e-03  -1.567227e-02  0 
 3.505076e-03  -1.610146e-02  0 
 3.513583e-03  -1.653179e-02  0 
 1.367211e-03  -1.696338e-02  0 
 1.799330e-03  -1.695194e-02  0 
 2.229416e-03  -1.694495e-02  0 
 2.658349e-03  -1.694568e-02  0 
 3.086357e-03  -1.695406e-02  0 
 2.515890e-03  -1.577525e-02  0 
 1.979006e-03  -1.526592e-02  0 
 2.800619e-03  -1.615275e-02  0 
 2.735361e-03  -1.507536e-02  0 
 2.914236e-03  -1.660368e-02  0 
 2.866554e-03  -1.470722e-02  0 
 1.841137e-03  -1.569676e-02  0 
 2.901763e-03  -1.565657e-02  0 
 2.280985e-03  -1.617349e-02  0 
 2.316814e-03  -1.513243e-02  0 
 2.131523e-03  -1.588036e-02  0 
 2.267173e-03  -1.547472e-02  0 
 2.444108e-03  -1.652590e-02  0 
 2.432106e-03  -1.476220e-02  0 
 3.211111e-03  -1.634281e-02  0 
 3.131680e-03  -1.502532e-02  0 
 1.521039e-03  -1.654897e-02  0 
 1.639831e-03  -1.531415e-02  0 
 1.508800e-03  -1.606890e-02  0 
 2.633939e-03  -1.542171e-02  0 
 1.487533e-03  -1.568180e-02  0 
 1.235083e-03  -1.587961e-02  0 
 1.274793e-03  -1.544611e-02  0 
 1.931200e-03  -1.484322e-02  0 
 2.004337e-03  -1.657165e-02  0 
 2.926501e-03  -1.532786e-02  0 
 3.192255e-03  -1.589897e-02  0 
 1.383493e-03  -1.495088e-02  0 
 3.248213e-03  -1.667890e-02  0 
 3.183027e-03  -1.463571e-02  0 
 1.224016e-03  -1.631174e-02  0 
 3.188146e-03  -1.547097e-02  0 
 1.882741e-03  -1.615633e-02  0 
 1.196178e-03  -1.666689e-02  0 
 1.544182e-03  -1.460085e-02  0 
 1.265343e-03  -1.457460e-02  0 
VECTORS displacement_ITER9 FLOAT
 9.500662e-04  -1.426527e-02  0 
 3.398650e-03  -1.436068e-02  0 
 9.011923e-04  -1.698134e-02  0 
 3.484450e-03  -1.697160e-02  0 
 1.363781e-03  -1.434545e-02  0 
 1.779233e-03  -1.437482e-02  0 
 2.195031e-03  -1.439128e-02  0 
 2.606846e-03  -1.439740e-02  0 
 3.014158e-03  -1.439475e-02  0 
 9.328683e-04  -1.478127e-02  0 
 9.248293e-04  -1.523416e-02  0 
 9.199998e-04  -1.567545e-02  0 
 9.146694e-04  -1.611044e-02  0 
 9.081755e-04  -1.654333e-02  0 
 3.429018e-03  -1.481946e-02  0 
 3.446368e-03  -1.525276e-02  0 
 3.458523e-03  -1.568187e-02  0 
 3.468542e-03  -1.610937e-02  0 
 3.476757e-03  -1.653793e-02  0 
 1.338580e-03  -1.696787e-02  0 
 1.769056e-03  -1.695655e-02  0 
 2.197551e-03  -1.694969e-02  0 
 2.624912e-03  -1.695043e-02  0 
 3.051272e-03  -1.695855e-02  0 
 2.482865e-03  -1.578435e-02  0 
 1.947929e-03  -1.527695e-02  0 
 2.766661e-03  -1.616055e-02  0 
 2.701508e-03  -1.508674e-02  0 
 2.879874e-03  -1.660972e-02  0 
 2.832178e-03  -1.471967e-02  0 
 1.810546e-03  -1.570616e-02  0 
 2.867430e-03  -1.566618e-02  0 
 2.248844e-03  -1.618110e-02  0 
 2.284532e-03  -1.514382e-02  0 
 2.099891e-03  -1.588906e-02  0 
 2.235030e-03  -1.548490e-02  0 
 2.411440e-03  -1.653223e-02  0 
 2.399546e-03  -1.477475e-02  0 
 3.175622e-03  -1.634988e-02  0 
 3.096407e-03  -1.503699e-02  0 
 1.491782e-03  -1.655503e-02  0 
 1.610006e-03  -1.532513e-02  0 
 1.479539e-03  -1.607676e-02  0 
 2.600455e-03  -1.543202e-02  0 
 1.458357e-03  -1.569125e-02  0 
 1.206956e-03  -1.588825e-02  0 
 1.246523e-03  -1.545656e-02  0 
 1.900357e-03  -1.485585e-02  0 
 1.973254e-03  -1.657773e-02  0 
 2.892018e-03  -1.533851e-02  0 
 3.156917e-03  -1.590773e-02  0 
 1.354611e-03  -1.496334e-02  0 
 3.212483e-03  -1.668458e-02  0 
 3.147479e-03  -1.464825e-02  0 
 1.195848e-03  -1.631862e-02  0 
 3.152874e-03  -1.548135e-02  0 
 1.852062e-03  -1.616394e-02  0 
 1.168174e-03  -1.667244e-02  0 
 1.514748e-03  -1.461464e-02  0 
 1.236941e-03  -1.458894e-02  0 
VECTORS displacement_ITER10 FLOAT
 9.532211e-04  -1.426699e-02  0 
 3.399782e-03  -1.436173e-02  0 
 9.054207e-04  -1.697878e-02  0 
 3.484616e-03  -1.696950e-02  0 
 1.366623e-03  -1.434693e-02  0 
 1.781690e-03  -1.437630e-02  0 
 2.196971e-03  -1.439259e-02  0 
 2.608534e-03  -1.439861e-02  0 
 3.015505e-03  -1.439599e-02  0 
 9.363410e-04  -1.478226e-02  0 
 9.284461e-04  -1.523429e-02  0 
 9.235508e-04  -1.567509e-02  0 
 9.182425e-04  -1.610971e-02  0 
 9.121972e-04  -1.654212e-02  0 
 3.429873e-03  -1.481995e-02  0 
 3.447112e-03  -1.525291e-02  0 
 3.459185e-03  -1.568165e-02  0 
 3.469083e-03  -1.610874e-02  0 
 3.477110e-03  -1.653693e-02  0 
 1.341753e-03  -1.696587e-02  0 
 1.771612e-03  -1.695476e-02  0 
 2.199595e-03  -1.694800e-02  0 
 2.626455e-03  -1.694877e-02  0 
 3.052296e-03  -1.695683e-02  0 
 2.484525e-03  -1.578414e-02  0 
 1.950189e-03  -1.527734e-02  0 
 2.767997e-03  -1.615990e-02  0 
 2.703003e-03  -1.508731e-02  0 
 2.881112e-03  -1.660850e-02  0 
 2.833646e-03  -1.472057e-02  0 
 1.813014e-03  -1.570602e-02  0 
 2.868665e-03  -1.566609e-02  0 
 2.250793e-03  -1.618037e-02  0 
 2.286424e-03  -1.514437e-02  0 
 2.102008e-03  -1.588870e-02  0 
 2.236975e-03  -1.548506e-02  0 
 2.413215e-03  -1.653107e-02  0 
 2.401331e-03  -1.477570e-02  0 
 3.176454e-03  -1.634907e-02  0 
 3.097529e-03  -1.503745e-02  0 
 1.494673e-03  -1.655376e-02  0 
 1.612631e-03  -1.532543e-02  0 
 1.482503e-03  -1.607616e-02  0 
 2.602006e-03  -1.543222e-02  0 
 1.461283e-03  -1.569102e-02  0 
 1.210226e-03  -1.588776e-02  0 
 1.249681e-03  -1.545652e-02  0 
 1.902625e-03  -1.485672e-02  0 
 1.975542e-03  -1.657647e-02  0 
 2.893273e-03  -1.533876e-02  0 
 3.157816e-03  -1.590736e-02  0 
 1.357481e-03  -1.496410e-02  0 
 3.213295e-03  -1.668328e-02  0 
 3.148668e-03  -1.464914e-02  0 
 1.199210e-03  -1.631779e-02  0 
 3.153846e-03  -1.548138e-02  0 
 1.854491e-03  -1.616321e-02  0 
 1.171594e-03  -1.667094e-02  0 
 1.517454e-03  -1.461587e-02  0 
 1.239903e-03  -1.459027e-02  0 
VECTORS displacement_ITER11 FLOAT
 9.696474e-04  -1.426631e-02  0 
 3.424555e-03  -1.436569e-02  0 
 9.234062e-04  -1.698810e-02  0 
 3.509215e-03  -1.697775e-02  0 
 1.385563e-03  -1.434770e-02  0 
 1.801995e-03  -1.437801e-02  0 
 2.218619e-03  -1.439476e-02  0 
 2.631105e-03  -1.440120e-02  0 
 3.039093e-03  -1.439909e-02  0 
 9.535850e-04  -1.478457e-02  0 
 9.459807e-04  -1.523834e-02  0 
 9.413165e-04  -1.568046e-02  0 
 9.361433e-04  -1.611628e-02  0 
 9.301923e-04  -1.654999e-02  0 
 3.454584e-03  -1.482415e-02  0 
 3.471833e-03  -1.525767e-02  0 
 3.483986e-03  -1.568722e-02  0 
 3.493870e-03  -1.611536e-02  0 
 3.501808e-03  -1.654442e-02  0 
 1.361043e-03  -1.697505e-02  0 
 1.792121e-03  -1.696388e-02  0 
 2.221275e-03  -1.695695e-02  0 
 2.649241e-03  -1.695752e-02  0 
 3.076076e-03  -1.696534e-02  0 
 2.507119e-03  -1.579006e-02  0 
 1.971253e-03  -1.528180e-02  0 
 2.791252e-03  -1.616669e-02  0 
 2.726141e-03  -1.509161e-02  0 
 2.904581e-03  -1.661632e-02  0 
 2.856989e-03  -1.472421e-02  0 
 1.833674e-03  -1.571169e-02  0 
 2.892201e-03  -1.567173e-02  0 
 2.272723e-03  -1.618731e-02  0 
 2.308451e-03  -1.514858e-02  0 
 2.123529e-03  -1.589488e-02  0 
 2.258890e-03  -1.549017e-02  0 
 2.435531e-03  -1.653886e-02  0 
 2.423590e-03  -1.477900e-02  0 
 3.200600e-03  -1.635625e-02  0 
 3.121645e-03  -1.504190e-02  0 
 1.514399e-03  -1.656178e-02  0 
 1.632638e-03  -1.532995e-02  0 
 1.502148e-03  -1.608284e-02  0 
 2.624915e-03  -1.543731e-02  0 
 1.480809e-03  -1.569661e-02  0 
 1.228977e-03  -1.589384e-02  0 
 1.268463e-03  -1.546138e-02  0 
 1.923528e-03  -1.485991e-02  0 
 1.996660e-03  -1.658450e-02  0 
 2.916914e-03  -1.534369e-02  0 
 3.181945e-03  -1.591352e-02  0 
 1.376583e-03  -1.496739e-02  0 
 3.237466e-03  -1.669114e-02  0 
 3.172870e-03  -1.465305e-02  0 
 1.218034e-03  -1.632510e-02  0 
 3.178019e-03  -1.548657e-02  0 
 1.875278e-03  -1.617014e-02  0 
 1.190390e-03  -1.667926e-02  0 
 1.537070e-03  -1.461796e-02  0 
 1.258389e-03  -1.459205e-02  0 
VECTORS displacement_ITER12 FLOAT
 9.741740e-04  -1.427111e-02  0 
 3.430127e-03  -1.437668e-02  0 
 9.289743e-04  -1.699774e-02  0 
 3.515987e-03  -1.698606e-02  0 
 1.391333e-03  -1.435388e-02  0 
 1.808292e-03  -1.438515e-02  0 
 2.225271e-03  -1.440271e-02  0 
 2.637932e-03  -1.440987e-02  0 
 3.045771e-03  -1.440862e-02  0 
 9.585924e-04  -1.479124e-02  0 
 9.513576e-04  -1.524606e-02  0 
 9.470341e-04  -1.568874e-02  0 
 9.420004e-04  -1.612491e-02  0 
 9.359463e-04  -1.655905e-02  0 
 3.460755e-03  -1.483340e-02  0 
 3.478339e-03  -1.526640e-02  0 
 3.490707e-03  -1.569578e-02  0 
 3.500654e-03  -1.612380e-02  0 
 3.508602e-03  -1.655268e-02  0 
 1.367230e-03  -1.698444e-02  0 
 1.798647e-03  -1.697305e-02  0 
 2.228003e-03  -1.696584e-02  0 
 2.656075e-03  -1.696613e-02  0 
 3.082895e-03  -1.697372e-02  0 
 2.514161e-03  -1.579851e-02  0 
 1.978078e-03  -1.528998e-02  0 
 2.798238e-03  -1.617514e-02  0 
 2.733200e-03  -1.510018e-02  0 
 2.911490e-03  -1.662478e-02  0 
 2.863966e-03  -1.473308e-02  0 
 1.840388e-03  -1.572012e-02  0 
 2.899185e-03  -1.568016e-02  0 
 2.279646e-03  -1.619592e-02  0 
 2.315479e-03  -1.515688e-02  0 
 2.130422e-03  -1.590340e-02  0 
 2.265898e-03  -1.549854e-02  0 
 2.442425e-03  -1.654750e-02  0 
 2.430554e-03  -1.478736e-02  0 
 3.207492e-03  -1.636463e-02  0 
 3.128476e-03  -1.505063e-02  0 
 1.520779e-03  -1.657077e-02  0 
 1.639169e-03  -1.533804e-02  0 
 1.508512e-03  -1.609151e-02  0 
 2.631989e-03  -1.544575e-02  0 
 1.487146e-03  -1.570503e-02  0 
 1.235055e-03  -1.590238e-02  0 
 1.274505e-03  -1.546957e-02  0 
 1.930274e-03  -1.486770e-02  0 
 2.003383e-03  -1.659336e-02  0 
 2.923890e-03  -1.535221e-02  0 
 3.188838e-03  -1.592196e-02  0 
 1.382710e-03  -1.497486e-02  0 
 3.244290e-03  -1.669949e-02  0 
 3.179539e-03  -1.466236e-02  0 
 1.224135e-03  -1.633390e-02  0 
 3.184854e-03  -1.549507e-02  0 
 1.881978e-03  -1.617884e-02  0 
 1.196425e-03  -1.668839e-02  0 
 1.543276e-03  -1.462494e-02  0 
 1.264094e-03  -1.459855e-02  0 
VECTORS displacement_ITER13 FLOAT
 9.812736e-04  -1.426776e-02  0 
 3.430380e-03  -1.437858e-02  0 
 9.368295e-04  -1.699083e-02  0 
 3.518230e-03  -1.697938e-02  0 
 1.397972e-03  -1.435174e-02  0 
 1.814185e-03  -1.438356e-02  0 
 2.230203e-03  -1.440160e-02  0 
 2.641855e-03  -1.440929e-02  0 
 3.048352e-03  -1.440884e-02  0 
 9.659222e-04  -1.478836e-02  0 
 9.588321e-04  -1.524268e-02  0 
 9.545521e-04  -1.568475e-02  0 
 9.497297e-04  -1.612012e-02  0 
 9.437747e-04  -1.655336e-02  0 
 3.461683e-03  -1.483218e-02  0 
 3.479707e-03  -1.526358e-02  0 
 3.492425e-03  -1.569178e-02  0 
 3.502606e-03  -1.611874e-02  0 
 3.510713e-03  -1.654677e-02  0 
 1.374043e-03  -1.697769e-02  0 
 1.804523e-03  -1.696625e-02  0 
 2.232935e-03  -1.695892e-02  0 
 2.660046e-03  -1.695915e-02  0 
 3.085928e-03  -1.696682e-02  0 
 2.518570e-03  -1.579412e-02  0 
 1.983827e-03  -1.528672e-02  0 
 2.801878e-03  -1.616985e-02  0 
 2.737059e-03  -1.509764e-02  0 
 2.914863e-03  -1.661856e-02  0 
 2.867389e-03  -1.473178e-02  0 
 1.846412e-03  -1.571599e-02  0 
 2.902557e-03  -1.567601e-02  0 
 2.284573e-03  -1.619069e-02  0 
 2.320456e-03  -1.515403e-02  0 
 2.135751e-03  -1.589884e-02  0 
 2.270975e-03  -1.549487e-02  0 
 2.446909e-03  -1.654145e-02  0 
 2.435168e-03  -1.478554e-02  0 
 3.210161e-03  -1.635897e-02  0 
 3.131044e-03  -1.504831e-02  0 
 1.527289e-03  -1.656493e-02  0 
 1.645650e-03  -1.533461e-02  0 
 1.515123e-03  -1.608674e-02  0 
 2.636128e-03  -1.544223e-02  0 
 1.493853e-03  -1.570099e-02  0 
 1.242189e-03  -1.589805e-02  0 
 1.281572e-03  -1.546592e-02  0 
 1.936110e-03  -1.486525e-02  0 
 2.008875e-03  -1.658733e-02  0 
 2.927167e-03  -1.534894e-02  0 
 3.191472e-03  -1.591725e-02  0 
 1.389645e-03  -1.497190e-02  0 
 3.246947e-03  -1.669319e-02  0 
 3.181760e-03  -1.466167e-02  0 
 1.231299e-03  -1.632868e-02  0 
 3.187357e-03  -1.549142e-02  0 
 1.887805e-03  -1.617375e-02  0 
 1.203613e-03  -1.668233e-02  0 
 1.549811e-03  -1.462258e-02  0 
 1.271182e-03  -1.459586e-02  0 
VECTORS displacement_ITER14 FLOAT
 9.806583e-04  -1.426532e-02  0 
 3.425275e-03  -1.438196e-02  0 
 9.369948e-04  -1.698748e-02  0 
 3.514740e-03  -1.697556e-02  0 
 1.397535e-03  -1.435087e-02  0 
 1.813216e-03  -1.438331e-02  0 
 2.228566e-03  -1.440180e-02  0 
 2.639453e-03  -1.441005e-02  0 
 3.045038e-03  -1.441037e-02  0 
 9.657150e-04  -1.478713e-02  0 
 9.588511e-04  -1.524127e-02  0 
 9.547970e-04  -1.568280e-02  0 
 9.500459e-04  -1.611762e-02  0 
 9.440083e-04  -1.655030e-02  0 
 3.457112e-03  -1.483278e-02  0 
 3.475501e-03  -1.526285e-02  0 
 3.488471e-03  -1.569007e-02  0 
 3.498838e-03  -1.611618e-02  0 
 3.507078e-03  -1.654351e-02  0 
 1.373802e-03  -1.697412e-02  0 
 1.803699e-03  -1.696255e-02  0 
 2.231438e-03  -1.695506e-02  0 
 2.657833e-03  -1.695517e-02  0 
 3.083000e-03  -1.696285e-02  0 