# vtk DataFile Version 3.1
this is an vtk file created by FEMAC
ASCII
DATASET UNSTRUCTURED_GRID
POINTS 6 FLOAT
0.000000 0.000000 0.000000
0.000000 1.000000 0.000000
2.000000 0.000000 0.000000
2.000000 1.000000 0.000000
1.000000 0.000000 0.000000
1.000000 1.000000 0.000000
CELLS 2 10 
4 0 1 5 4
4 4 5 3 2
CELL_TYPES 2
9 9 
POINT_DATA 6
SCALARS CONDID_1 FLOAT
LOOKUP_TABLE default
 1 
 0 
 0 
 0 
 0 
 0 
SCALARS CONDID_2 FLOAT
LOOKUP_TABLE default
 1 
 1 
 0 
 0 
 0 
 0 
SCALARS CONDID_3 FLOAT
LOOKUP_TABLE default
 0 
 0 
 1 
 1 
 0 
 0 
VECTORS displacement FLOAT
 0  0  0 
 0  1.500000e-04  0 
 -1.000000e-03  -5.556536e-19  0 
 -1.000000e-03  1.500000e-04  0 
 -5.000000e-04  -1.559751e-19  0 
 -5.000000e-04  1.500000e-04  0 
CELL_DATA 2
SCALARS MATID_1 FLOAT
LOOKUP_TABLE default
 1 
 1 
SCALARS SUB_ID FLOAT
LOOKUP_TABLE default
 2 
 1 
VECTORS SubCenter_Diff FLOAT
 -5.000000e-01  0  0 
 5.000000e-01  0  0 
