# vtk DataFile Version 3.1
this is an vtk file created by FEMAC
ASCII
DATASET UNSTRUCTURED_GRID
POINTS 12 FLOAT
1.000000 0.000000 0.000000
1.500000 0.000000 0.000000
1.000000 0.200000 0.000000
1.000000 0.400000 0.000000
1.000000 0.600000 0.000000
1.000000 0.800000 0.000000
1.000000 1.000000 0.000000
1.500000 0.200000 0.000000
1.500000 0.400000 0.000000
1.500000 0.600000 0.000000
1.500000 0.800000 0.000000
1.500000 1.000000 0.000000
CELLS 5 25 
4 0 1 7 2
4 2 7 8 3
4 3 8 9 4
4 4  9 10  5
4 5 10 11  6
CELL_TYPES 5
9 9 9 9 9 
POINT_DATA 12
VECTORS displacement_ITER1 FLOAT
 -7.852937e-05  -1.209286e-04  0 
 -1.322997e-04  -2.308376e-04  0 
 -4.683082e-05  -1.194381e-04  0 
 -1.394695e-05  -1.188984e-04  0 
 1.692564e-05  -1.188010e-04  0 
 4.853040e-05  -1.190343e-04  0 
 8.052562e-05  -1.200640e-04  0 
 -7.889083e-05  -2.300097e-04  0 
 -2.509099e-05  -2.295190e-04  0 
 2.753730e-05  -2.299862e-04  0 
 8.086038e-05  -2.302110e-04  0 
 1.342569e-04  -2.309505e-04  0 
VECTORS displacement_ITER2 FLOAT
 -7.851133e-05  -1.207862e-04  0 
 -1.321599e-04  -2.310240e-04  0 
 -4.652488e-05  -1.196086e-04  0 
 -1.446656e-05  -1.189034e-04  0 
 1.706532e-05  -1.187336e-04  0 
 4.866109e-05  -1.191445e-04  0 
 8.050969e-05  -1.202471e-04  0 
 -7.881333e-05  -2.301289e-04  0 
 -2.528629e-05  -2.297330e-04  0 
 2.758560e-05  -2.298271e-04  0 
 8.090574e-05  -2.301394e-04  0 
 1.344084e-04  -2.309812e-04  0 
VECTORS displacement_ITER3 FLOAT
 -7.850811e-05  -1.207397e-04  0 
 -1.321616e-04  -2.311328e-04  0 
 -4.646491e-05  -1.196391e-04  0 
 -1.456718e-05  -1.189055e-04  0 
 1.709344e-05  -1.187241e-04  0 
 4.870717e-05  -1.191826e-04  0 
 8.049570e-05  -1.203027e-04  0 
 -7.875200e-05  -2.301844e-04  0 
 -2.542687e-05  -2.297692e-04  0 
 2.766164e-05  -2.297480e-04  0 
 8.094317e-05  -2.301359e-04  0 
 1.344553e-04  -2.310644e-04  0 
VECTORS displacement_ITER4 FLOAT
 -7.850902e-05  -1.207228e-04  0 
 -1.321604e-04  -2.311359e-04  0 
 -4.647579e-05  -1.196289e-04  0 
 -1.456104e-05  -1.189141e-04  0 
 1.711460e-05  -1.187434e-04  0 
 4.870610e-05  -1.191848e-04  0 
 8.048542e-05  -1.202928e-04  0 
 -7.871884e-05  -2.301873e-04  0 
 -2.547587e-05  -2.297638e-04  0 
 2.768019e-05  -2.297395e-04  0 
 8.095437e-05  -2.301305e-04  0 
 1.344494e-04  -2.310654e-04  0 
VECTORS displacement_ITER5 FLOAT
 -7.850860e-05  -1.207232e-04  0 
 -1.321606e-04  -2.311361e-04  0 
 -4.647769e-05  -1.196303e-04  0 
 -1.456616e-05  -1.189142e-04  0 
 1.712488e-05  -1.187449e-04  0 
 4.870452e-05  -1.191856e-04  0 
 8.048309e-05  -1.202925e-04  0 
 -7.871463e-05  -2.301887e-04  0 
 -2.548161e-05  -2.297640e-04  0 
 2.768183e-05  -2.297413e-04  0 
 8.095278e-05  -2.301326e-04  0 
 1.344534e-04  -2.310654e-04  0 
VECTORS displacement_ITER6 FLOAT
 -7.850838e-05  -1.207231e-04  0 
 -1.321615e-04  -2.311362e-04  0 
 -4.647693e-05  -1.196310e-04  0 
 -1.456865e-05  -1.189136e-04  0 
 1.712667e-05  -1.187447e-04  0 
 4.870422e-05  -1.191863e-04  0 
 8.048312e-05  -1.202929e-04  0 
 -7.871338e-05  -2.301889e-04  0 
 -2.548264e-05  -2.297650e-04  0 
 2.768445e-05  -2.297420e-04  0 
 8.094989e-05  -2.301343e-04  0 
 1.344555e-04  -2.310669e-04  0 
VECTORS displacement_ITER7 FLOAT
 -7.850863e-05  -1.207231e-04  0 
 -1.321615e-04  -2.311357e-04  0 
 -4.647660e-05  -1.196311e-04  0 
 -1.456856e-05  -1.189136e-04  0 
 1.712666e-05  -1.187444e-04  0 
 4.870357e-05  -1.191858e-04  0 
 8.048339e-05  -1.202928e-04  0 
 -7.871312e-05  -2.301892e-04  0 
 -2.548300e-05  -2.297648e-04  0 
 2.768486e-05  -2.297418e-04  0 
 8.094962e-05  -2.301341e-04  0 
 1.344552e-04  -2.310667e-04  0 
VECTORS displacement_ITER8 FLOAT
 -7.850866e-05  -1.207231e-04  0 
 -1.321615e-04  -2.311356e-04  0 
 -4.647658e-05  -1.196311e-04  0 
 -1.456855e-05  -1.189136e-04  0 
 1.712668e-05  -1.187443e-04  0 
 4.870348e-05  -1.191857e-04  0 
 8.048342e-05  -1.202928e-04  0 
 -7.871310e-05  -2.301892e-04  0 
 -2.548298e-05  -2.297648e-04  0 
 2.768493e-05  -2.297418e-04  0 
 8.094956e-05  -2.301341e-04  0 
 1.344551e-04  -2.310667e-04  0 
VECTORS displacement_ITER9 FLOAT
 -7.850864e-05  -1.207231e-04  0 
 -1.321615e-04  -2.311355e-04  0 
 -4.647659e-05  -1.196311e-04  0 
 -1.456855e-05  -1.189136e-04  0 
 1.712665e-05  -1.187443e-04  0 
 4.870350e-05  -1.191857e-04  0 
 8.048343e-05  -1.202928e-04  0 
 -7.871310e-05  -2.301891e-04  0 
 -2.548292e-05  -2.297648e-04  0 
 2.768495e-05  -2.297419e-04  0 
 8.094951e-05  -2.301341e-04  0 
 1.344551e-04  -2.310667e-04  0 
VECTORS displacement_ITER10 FLOAT
 -7.850864e-05  -1.207231e-04  0 
 -1.321615e-04  -2.311355e-04  0 
 -4.647659e-05  -1.196311e-04  0 
 -1.456854e-05  -1.189136e-04  0 
 1.712664e-05  -1.187443e-04  0 
 4.870350e-05  -1.191857e-04  0 
 8.048343e-05  -1.202928e-04  0 
 -7.871311e-05  -2.301891e-04  0 
 -2.548293e-05  -2.297648e-04  0 
 2.768495e-05  -2.297419e-04  0 
 8.094951e-05  -2.301341e-04  0 
 1.344551e-04  -2.310667e-04  0 
CELL_DATA 5
TENSORS element_stresses FLOAT
 -9.270395e-03  -5.591707e-04  0 
 -5.591707e-04  -2.271512e-03  0 
 0  0  0 

 -4.647752e-03  -6.587429e-04  0 
 -6.587429e-04  -1.108872e-03  0 
 0  0  0 

 -2.328481e-05  -7.454725e-04  0 
 -7.454725e-04  4.107696e-05  0 
 0  0  0 

 4.635063e-03  -7.571108e-04  0 
 -7.571108e-04  1.182102e-03  0 
 0  0  0 

 9.306369e-03  -6.545032e-04  0 
 -6.545032e-04  2.282005e-03  0 
 0  0  0 

TENSORS element_stresses FLOAT
 -9.270395e-03  -5.591707e-04  0 
 -5.591707e-04  -2.271512e-03  0 
 0  0  0 

 -4.647752e-03  -6.587429e-04  0 
 -6.587429e-04  -1.108872e-03  0 
 0  0  0 

 -2.328481e-05  -7.454725e-04  0 
 -7.454725e-04  4.107696e-05  0 
 0  0  0 

 4.635063e-03  -7.571108e-04  0 
 -7.571108e-04  1.182102e-03  0 
 0  0  0 

 9.306369e-03  -6.545032e-04  0 
 -6.545032e-04  2.282005e-03  0 
 0  0  0 

