# vtk DataFile Version 3.1
this is an vtk file created by FEMAC
ASCII
DATASET UNSTRUCTURED_GRID
POINTS 12 FLOAT
3.500000 0.000000 0.000000
4.000000 0.000000 0.000000
3.500000 0.200000 0.000000
3.500000 0.400000 0.000000
3.500000 0.600000 0.000000
3.500000 0.800000 0.000000
3.500000 1.000000 0.000000
4.000000 0.200000 0.000000
4.000000 0.400000 0.000000
4.000000 0.600000 0.000000
4.000000 0.800000 0.000000
4.000000 1.000000 0.000000
CELLS 5 25 
4 0 1 7 2
4 2 7 8 3
4 3 8 9 4
4 4  9 10  5
4 5 10 11  6
CELL_TYPES 5
9 9 9 9 9 
POINT_DATA 12
VECTORS displacement_ITER1 FLOAT
 -2.076833e-04  -9.071052e-04  0 
 -2.101388e-04  -1.117210e-03  0 
 -1.241737e-04  -9.066743e-04  0 
 -4.076136e-05  -9.065395e-04  0 
 4.260229e-05  -9.065380e-04  0 
 1.260064e-04  -9.067078e-04  0 
 2.094982e-04  -9.071436e-04  0 
 -1.255963e-04  -1.116839e-03  0 
 -4.121585e-05  -1.116604e-03  0 
 4.307696e-05  -1.116581e-03  0 
 1.274181e-04  -1.116813e-03  0 
 2.119252e-04  -1.117159e-03  0 
VECTORS displacement_ITER2 FLOAT
 -2.068598e-04  -9.058575e-04  0 
 -2.092576e-04  -1.115245e-03  0 
 -1.235860e-04  -9.054132e-04  0 
 -4.045109e-05  -9.052466e-04  0 
 4.264154e-05  -9.052503e-04  0 
 1.257795e-04  -9.054239e-04  0 
 2.090515e-04  -9.058626e-04  0 
 -1.250466e-04  -1.114888e-03  0 
 -4.093454e-05  -1.114657e-03  0 
 4.312959e-05  -1.114660e-03  0 
 1.272387e-04  -1.114892e-03  0 
 2.114432e-04  -1.115240e-03  0 
VECTORS displacement_ITER3 FLOAT
 -2.067084e-04  -9.058699e-04  0 
 -2.090875e-04  -1.115088e-03  0 
 -1.234797e-04  -9.054129e-04  0 
 -4.039958e-05  -9.052318e-04  0 
 4.263276e-05  -9.052306e-04  0 
 1.257204e-04  -9.054112e-04  0 
 2.089510e-04  -9.058668e-04  0 
 -1.249571e-04  -1.114742e-03  0 
 -4.089391e-05  -1.114524e-03  0 
 4.313108e-05  -1.114527e-03  0 
 1.271951e-04  -1.114747e-03  0 
 2.113280e-04  -1.115092e-03  0 
VECTORS displacement_ITER4 FLOAT
 -2.067311e-04  -9.059123e-04  0 
 -2.091062e-04  -1.115148e-03  0 
 -1.234924e-04  -9.054565e-04  0 
 -4.040324e-05  -9.052728e-04  0 
 4.263550e-05  -9.052714e-04  0 
 1.257262e-04  -9.054545e-04  0 
 2.089647e-04  -9.059106e-04  0 
 -1.249717e-04  -1.114805e-03  0 
 -4.090001e-05  -1.114584e-03  0 
 4.313296e-05  -1.114584e-03  0 
 1.272041e-04  -1.114804e-03  0 
 2.113398e-04  -1.115148e-03  0 
VECTORS displacement_ITER5 FLOAT
 -2.067385e-04  -9.059132e-04  0 
 -2.091133e-04  -1.115160e-03  0 
 -1.234964e-04  -9.054588e-04  0 
 -4.040371e-05  -9.052757e-04  0 
 4.263866e-05  -9.052755e-04  0 
 1.257316e-04  -9.054579e-04  0 
 2.089737e-04  -9.059125e-04  0 
 -1.249752e-04  -1.114816e-03  0 
 -4.089986e-05  -1.114594e-03  0 
 4.313477e-05  -1.114594e-03  0 
 1.272101e-04  -1.114816e-03  0 
 2.113488e-04  -1.115160e-03  0 
VECTORS displacement_ITER6 FLOAT
 -2.067388e-04  -9.059162e-04  0 
 -2.091142e-04  -1.115163e-03  0 
 -1.234970e-04  -9.054615e-04  0 
 -4.040393e-05  -9.052788e-04  0 
 4.263859e-05  -9.052787e-04  0 
 1.257319e-04  -9.054611e-04  0 
 2.089739e-04  -9.059158e-04  0 
 -1.249753e-04  -1.114819e-03  0 
 -4.090013e-05  -1.114598e-03  0 
 4.313487e-05  -1.114598e-03  0 
 1.272101e-04  -1.114819e-03  0 
 2.113491e-04  -1.115163e-03  0 
VECTORS displacement_ITER7 FLOAT
 -2.067384e-04  -9.059160e-04  0 
 -2.091139e-04  -1.115162e-03  0 
 -1.234969e-04  -9.054612e-04  0 
 -4.040388e-05  -9.052785e-04  0 
 4.263837e-05  -9.052784e-04  0 
 1.257316e-04  -9.054609e-04  0 
 2.089735e-04  -9.059156e-04  0 
 -1.249751e-04  -1.114819e-03  0 
 -4.090017e-05  -1.114597e-03  0 
 4.313469e-05  -1.114597e-03  0 
 1.272098e-04  -1.114819e-03  0 
 2.113487e-04  -1.115163e-03  0 
VECTORS displacement_ITER8 FLOAT
 -2.067383e-04  -9.059156e-04  0 
 -2.091138e-04  -1.115162e-03  0 
 -1.234969e-04  -9.054608e-04  0 
 -4.040382e-05  -9.052781e-04  0 
 4.263837e-05  -9.052779e-04  0 
 1.257316e-04  -9.054604e-04  0 
 2.089734e-04  -9.059151e-04  0 
 -1.249751e-04  -1.114818e-03  0 
 -4.090015e-05  -1.114597e-03  0 
 4.313471e-05  -1.114597e-03  0 
 1.272098e-04  -1.114818e-03  0 
 2.113487e-04  -1.115162e-03  0 
VECTORS displacement_ITER9 FLOAT
 -2.067383e-04  -9.059156e-04  0 
 -2.091138e-04  -1.115162e-03  0 
 -1.234969e-04  -9.054608e-04  0 
 -4.040383e-05  -9.052781e-04  0 
 4.263835e-05  -9.052780e-04  0 
 1.257316e-04  -9.054604e-04  0 
 2.089734e-04  -9.059152e-04  0 
 -1.249751e-04  -1.114818e-03  0 
 -4.090017e-05  -1.114597e-03  0 
 4.313470e-05  -1.114597e-03  0 
 1.272098e-04  -1.114818e-03  0 
 2.113487e-04  -1.115162e-03  0 
VECTORS displacement_ITER10 FLOAT
 -2.067383e-04  -9.059156e-04  0 
 -2.091138e-04  -1.115162e-03  0 
 -1.234969e-04  -9.054608e-04  0 
 -4.040383e-05  -9.052781e-04  0 
 4.263835e-05  -9.052780e-04  0 
 1.257316e-04  -9.054604e-04  0 
 2.089734e-04  -9.059151e-04  0 
 -1.249751e-04  -1.114818e-03  0 
 -4.090016e-05  -1.114597e-03  0 
 4.313470e-05  -1.114597e-03  0 
 1.272098e-04  -1.114818e-03  0 
 2.113487e-04  -1.115162e-03  0 
CELL_DATA 5
TENSORS element_stresses FLOAT
 -3.576608e-03  -1.178399e-04  0 
 -1.178399e-04  9.234291e-04  0 
 0  0  0 

 -1.836686e-03  -5.814565e-04  0 
 -5.814565e-04  4.594734e-04  0 
 0  0  0 

 8.596206e-08  -7.266154e-04  0 
 -7.266154e-04  2.140498e-07  0 
 0  0  0 

 1.836790e-03  -5.813917e-04  0 
 -5.813917e-04  -4.591607e-04  0 
 0  0  0 

 3.576418e-03  -1.176965e-04  0 
 -1.176965e-04  -9.233453e-04  0 
 0  0  0 

TENSORS element_stresses FLOAT
 -3.576608e-03  -1.178399e-04  0 
 -1.178399e-04  9.234291e-04  0 
 0  0  0 

 -1.836686e-03  -5.814565e-04  0 
 -5.814565e-04  4.594734e-04  0 
 0  0  0 

 8.596206e-08  -7.266154e-04  0 
 -7.266154e-04  2.140498e-07  0 
 0  0  0 

 1.836790e-03  -5.813917e-04  0 
 -5.813917e-04  -4.591607e-04  0 
 0  0  0 

 3.576418e-03  -1.176965e-04  0 
 -1.176965e-04  -9.233453e-04  0 
 0  0  0 

