# vtk DataFile Version 3.1
this is an vtk file created by FEMAC
ASCII
DATASET UNSTRUCTURED_GRID
POINTS 12 FLOAT
2.000000 0.000000 0.000000
2.500000 0.000000 0.000000
2.000000 0.200000 0.000000
2.000000 0.400000 0.000000
2.000000 0.600000 0.000000
2.000000 0.800000 0.000000
2.000000 1.000000 0.000000
2.500000 0.200000 0.000000
2.500000 0.400000 0.000000
2.500000 0.600000 0.000000
2.500000 0.800000 0.000000
2.500000 1.000000 0.000000
CELLS 5 25 
4 0 1 7 2
4 2 7 8 3
4 3 8 9 4
4 4  9 10  5
4 5 10 11  6
CELL_TYPES 5
9 9 9 9 9 
POINT_DATA 12
VECTORS displacement_ITER1 FLOAT
 -1.368852e-04  -3.674659e-04  0 
 -1.776418e-04  -5.294072e-04  0 
 -8.200310e-05  -3.661982e-04  0 
 -2.737433e-05  -3.654726e-04  0 
 2.843427e-05  -3.658668e-04  0 
 8.485848e-05  -3.664959e-04  0 
 1.392944e-04  -3.672714e-04  0 
 -1.053397e-04  -5.283066e-04  0 
 -3.393385e-05  -5.277080e-04  0 
 3.644973e-05  -5.278452e-04  0 
 1.069635e-04  -5.282724e-04  0 
 1.792035e-04  -5.290698e-04  0 
VECTORS displacement_ITER2 FLOAT
 -1.373172e-04  -3.672047e-04  0 
 -1.764579e-04  -5.288084e-04  0 
 -8.175119e-05  -3.663689e-04  0 
 -2.678815e-05  -3.659170e-04  0 
 2.881710e-05  -3.660426e-04  0 
 8.413265e-05  -3.664956e-04  0 
 1.395267e-04  -3.672003e-04  0 
 -1.052592e-04  -5.281143e-04  0 
 -3.419417e-05  -5.278191e-04  0 
 3.633635e-05  -5.278344e-04  0 
 1.075111e-04  -5.281027e-04  0 
 1.786399e-04  -5.287327e-04  0 
VECTORS displacement_ITER3 FLOAT
 -1.373525e-04  -3.672546e-04  0 
 -1.763707e-04  -5.288420e-04  0 
 -8.184623e-05  -3.664720e-04  0 
 -2.656929e-05  -3.660303e-04  0 
 2.879445e-05  -3.660545e-04  0 
 8.408710e-05  -3.665183e-04  0 
 1.395798e-04  -3.672913e-04  0 
 -1.052491e-04  -5.281782e-04  0 
 -3.437016e-05  -5.279016e-04  0 
 3.652880e-05  -5.278927e-04  0 
 1.075412e-04  -5.281584e-04  0 
 1.786362e-04  -5.288153e-04  0 
VECTORS displacement_ITER4 FLOAT
 -1.373151e-04  -3.672616e-04  0 
 -1.764206e-04  -5.288514e-04  0 
 -8.188925e-05  -3.664826e-04  0 
 -2.655273e-05  -3.660284e-04  0 
 2.875806e-05  -3.660361e-04  0 
 8.412351e-05  -3.665063e-04  0 
 1.395747e-04  -3.672915e-04  0 
 -1.052696e-04  -5.281746e-04  0 
 -3.434329e-05  -5.278908e-04  0 
 3.657134e-05  -5.278869e-04  0 
 1.075048e-04  -5.281689e-04  0 
 1.786517e-04  -5.288465e-04  0 
VECTORS displacement_ITER5 FLOAT
 -1.373161e-04  -3.672591e-04  0 
 -1.764179e-04  -5.288467e-04  0 
 -8.189042e-05  -3.664841e-04  0 
 -2.654930e-05  -3.660310e-04  0 
 2.875804e-05  -3.660419e-04  0 
 8.412231e-05  -3.665109e-04  0 
 1.395775e-04  -3.672916e-04  0 
 -1.052760e-04  -5.281720e-04  0 
 -3.432694e-05  -5.278902e-04  0 
 3.656442e-05  -5.278914e-04  0 
 1.075096e-04  -5.281756e-04  0 
 1.786472e-04  -5.288529e-04  0 
VECTORS displacement_ITER6 FLOAT
 -1.373161e-04  -3.672595e-04  0 
 -1.764185e-04  -5.288477e-04  0 
 -8.189245e-05  -3.664837e-04  0 
 -2.654703e-05  -3.660318e-04  0 
 2.875695e-05  -3.660445e-04  0 
 8.412445e-05  -3.665141e-04  0 
 1.395774e-04  -3.672932e-04  0 
 -1.052761e-04  -5.281726e-04  0 
 -3.432512e-05  -5.278918e-04  0 
 3.656352e-05  -5.278942e-04  0 
 1.075105e-04  -5.281787e-04  0 
 1.786483e-04  -5.288544e-04  0 
VECTORS displacement_ITER7 FLOAT
 -1.373155e-04  -3.672592e-04  0 
 -1.764188e-04  -5.288478e-04  0 
 -8.189323e-05  -3.664838e-04  0 
 -2.654681e-05  -3.660313e-04  0 
 2.875635e-05  -3.660440e-04  0 
 8.412518e-05  -3.665137e-04  0 
 1.395768e-04  -3.672930e-04  0 
 -1.052761e-04  -5.281727e-04  0 
 -3.432480e-05  -5.278914e-04  0 
 3.656224e-05  -5.278934e-04  0 
 1.075107e-04  -5.281777e-04  0 
 1.786487e-04  -5.288538e-04  0 
VECTORS displacement_ITER8 FLOAT
 -1.373155e-04  -3.672591e-04  0 
 -1.764184e-04  -5.288478e-04  0 
 -8.189303e-05  -3.664838e-04  0 
 -2.654690e-05  -3.660314e-04  0 
 2.875620e-05  -3.660439e-04  0 
 8.412513e-05  -3.665136e-04  0 
 1.395769e-04  -3.672928e-04  0 
 -1.052764e-04  -5.281727e-04  0 
 -3.432462e-05  -5.278914e-04  0 
 3.656183e-05  -5.278932e-04  0 
 1.075111e-04  -5.281774e-04  0 
 1.786484e-04  -5.288535e-04  0 
VECTORS displacement_ITER9 FLOAT
 -1.373155e-04  -3.672591e-04  0 
 -1.764184e-04  -5.288478e-04  0 
 -8.189306e-05  -3.664838e-04  0 
 -2.654686e-05  -3.660314e-04  0 
 2.875609e-05  -3.660440e-04  0 
 8.412520e-05  -3.665136e-04  0 
 1.395769e-04  -3.672929e-04  0 
 -1.052764e-04  -5.281727e-04  0 
 -3.432472e-05  -5.278914e-04  0 
 3.656186e-05  -5.278932e-04  0 
 1.075111e-04  -5.281774e-04  0 
 1.786484e-04  -5.288535e-04  0 
VECTORS displacement_ITER10 FLOAT
 -1.373155e-04  -3.672591e-04  0 
 -1.764184e-04  -5.288478e-04  0 
 -8.189306e-05  -3.664837e-04  0 
 -2.654687e-05  -3.660313e-04  0 
 2.875611e-05  -3.660439e-04  0 
 8.412519e-05  -3.665136e-04  0 
 1.395769e-04  -3.672929e-04  0 
 -1.052764e-04  -5.281726e-04  0 
 -3.432471e-05  -5.278913e-04  0 
 3.656184e-05  -5.278931e-04  0 
 1.075111e-04  -5.281774e-04  0 
 1.786484e-04  -5.288535e-04  0 
CELL_DATA 5
TENSORS element_stresses FLOAT
 -6.747071e-03  -5.281830e-04  0 
 -5.281830e-04  -1.661495e-03  0 
 0  0  0 

 -3.363834e-03  -6.003251e-04  0 
 -6.003251e-04  -8.257200e-04  0 
 0  0  0 

 1.876212e-06  -6.334899e-04  0 
 -6.334899e-04  -3.042210e-06  0 
 0  0  0 

 3.365520e-03  -5.936146e-04  0 
 -5.936146e-04  8.211776e-04  0 
 0  0  0 

 6.743508e-03  -5.193873e-04  0 
 -5.193873e-04  1.659219e-03  0 
 0  0  0 

TENSORS element_stresses FLOAT
 -6.747071e-03  -5.281830e-04  0 
 -5.281830e-04  -1.661495e-03  0 
 0  0  0 

 -3.363834e-03  -6.003251e-04  0 
 -6.003251e-04  -8.257200e-04  0 
 0  0  0 

 1.876212e-06  -6.334899e-04  0 
 -6.334899e-04  -3.042210e-06  0 
 0  0  0 

 3.365520e-03  -5.936146e-04  0 
 -5.936146e-04  8.211776e-04  0 
 0  0  0 

 6.743508e-03  -5.193873e-04  0 
 -5.193873e-04  1.659219e-03  0 
 0  0  0 

