# vtk DataFile Version 3.1
this is an vtk file created by FEMAC
ASCII
DATASET UNSTRUCTURED_GRID
POINTS 12 FLOAT
3.000000 0.000000 0.000000
3.500000 0.000000 0.000000
3.000000 0.200000 0.000000
3.000000 0.400000 0.000000
3.000000 0.600000 0.000000
3.000000 0.800000 0.000000
3.000000 1.000000 0.000000
3.500000 0.200000 0.000000
3.500000 0.400000 0.000000
3.500000 0.600000 0.000000
3.500000 0.800000 0.000000
3.500000 1.000000 0.000000
CELLS 5 25 
4 0 1 7 2
4 2 7 8 3
4 3 8 9 4
4 4  9 10  5
4 5 10 11  6
CELL_TYPES 5
9 9 9 9 9 
POINT_DATA 12
VECTORS displacement_ITER1 FLOAT
 -1.804388e-04  -7.092519e-04  0 
 -2.078958e-04  -9.072411e-04  0 
 -1.080784e-04  -7.085453e-04  0 
 -3.593055e-05  -7.080286e-04  0 
 3.748077e-05  -7.081264e-04  0 
 1.101395e-04  -7.084944e-04  0 
 1.825219e-04  -7.091579e-04  0 
 -1.239614e-04  -9.066583e-04  0 
 -4.048083e-05  -9.063735e-04  0 
 4.241507e-05  -9.065697e-04  0 
 1.257526e-04  -9.066532e-04  0 
 2.096590e-04  -9.072127e-04  0 
VECTORS displacement_ITER2 FLOAT
 -1.799689e-04  -7.084207e-04  0 
 -2.069372e-04  -9.059413e-04  0 
 -1.076532e-04  -7.078548e-04  0 
 -3.519514e-05  -7.074825e-04  0 
 3.741040e-05  -7.074544e-04  0 
 1.098558e-04  -7.077686e-04  0 
 1.821340e-04  -7.083614e-04  0 
 -1.234848e-04  -9.054487e-04  0 
 -4.035100e-05  -9.052207e-04  0 
 4.254320e-05  -9.051765e-04  0 
 1.256583e-04  -9.053458e-04  0 
 2.091472e-04  -9.059212e-04  0 
VECTORS displacement_ITER3 FLOAT
 -1.800330e-04  -7.084319e-04  0 
 -2.067091e-04  -9.058737e-04  0 
 -1.075133e-04  -7.079180e-04  0 
 -3.506548e-05  -7.075664e-04  0 
 3.735853e-05  -7.075389e-04  0 
 1.097319e-04  -7.078608e-04  0 
 1.822473e-04  -7.083861e-04  0 
 -1.234863e-04  -9.054436e-04  0 
 -4.038687e-05  -9.052318e-04  0 
 4.263288e-05  -9.052152e-04  0 
 1.257120e-04  -9.054053e-04  0 
 2.089539e-04  -9.058537e-04  0 
VECTORS displacement_ITER4 FLOAT
 -1.800503e-04  -7.084454e-04  0 
 -2.067257e-04  -9.059018e-04  0 
 -1.075243e-04  -7.079121e-04  0 
 -3.506813e-05  -7.075806e-04  0 
 3.731636e-05  -7.075776e-04  0 
 1.097454e-04  -7.079051e-04  0 
 1.822793e-04  -7.084369e-04  0 
 -1.234998e-04  -9.054531e-04  0 
 -4.040652e-05  -9.052740e-04  0 
 4.263877e-05  -9.052814e-04  0 
 1.257323e-04  -9.054619e-04  0 
 2.089607e-04  -9.059060e-04  0 
VECTORS displacement_ITER5 FLOAT
 -1.800409e-04  -7.084462e-04  0 
 -2.067376e-04  -9.059123e-04  0 
 -1.075273e-04  -7.079061e-04  0 
 -3.507272e-05  -7.075760e-04  0 
 3.731080e-05  -7.075761e-04  0 
 1.097596e-04  -7.079061e-04  0 
 1.822732e-04  -7.084458e-04  0 
 -1.234969e-04  -9.054548e-04  0 
 -4.040500e-05  -9.052755e-04  0 
 4.263973e-05  -9.052766e-04  0 
 1.257313e-04  -9.054594e-04  0 
 2.089740e-04  -9.059149e-04  0 
VECTORS displacement_ITER6 FLOAT
 -1.800410e-04  -7.084489e-04  0 
 -2.067391e-04  -9.059167e-04  0 
 -1.075241e-04  -7.079099e-04  0 
 -3.507915e-05  -7.075786e-04  0 
 3.731449e-05  -7.075778e-04  0 
 1.097603e-04  -7.079086e-04  0 
 1.822743e-04  -7.084470e-04  0 
 -1.234972e-04  -9.054612e-04  0 
 -4.040284e-05  -9.052789e-04  0 
 4.263825e-05  -9.052783e-04  0 
 1.257316e-04  -9.054610e-04  0 
 2.089739e-04  -9.059160e-04  0 
VECTORS displacement_ITER7 FLOAT
 -1.800419e-04  -7.084487e-04  0 
 -2.067384e-04  -9.059162e-04  0 
 -1.075238e-04  -7.079103e-04  0 
 -3.507928e-05  -7.075786e-04  0 
 3.731572e-05  -7.075777e-04  0 
 1.097591e-04  -7.079079e-04  0 
 1.822746e-04  -7.084463e-04  0 
 -1.234971e-04  -9.054614e-04  0 
 -4.040371e-05  -9.052787e-04  0 
 4.263831e-05  -9.052784e-04  0 
 1.257317e-04  -9.054607e-04  0 
 2.089734e-04  -9.059152e-04  0 
VECTORS displacement_ITER8 FLOAT
 -1.800418e-04  -7.084485e-04  0 
 -2.067383e-04  -9.059156e-04  0 
 -1.075239e-04  -7.079099e-04  0 
 -3.507906e-05  -7.075782e-04  0 
 3.731589e-05  -7.075773e-04  0 
 1.097588e-04  -7.079075e-04  0 
 1.822743e-04  -7.084459e-04  0 
 -1.234969e-04  -9.054608e-04  0 
 -4.040384e-05  -9.052781e-04  0 
 4.263834e-05  -9.052779e-04  0 
 1.257316e-04  -9.054604e-04  0 
 2.089735e-04  -9.059151e-04  0 
VECTORS displacement_ITER9 FLOAT
 -1.800419e-04  -7.084486e-04  0 
 -2.067383e-04  -9.059156e-04  0 
 -1.075238e-04  -7.079099e-04  0 
 -3.507912e-05  -7.075782e-04  0 
 3.731595e-05  -7.075773e-04  0 
 1.097587e-04  -7.079075e-04  0 
 1.822744e-04  -7.084459e-04  0 
 -1.234969e-04  -9.054608e-04  0 
 -4.040382e-05  -9.052781e-04  0 
 4.263833e-05  -9.052780e-04  0 
 1.257316e-04  -9.054604e-04  0 
 2.089735e-04  -9.059152e-04  0 
VECTORS displacement_ITER10 FLOAT
 -1.800419e-04  -7.084486e-04  0 
 -2.067383e-04  -9.059156e-04  0 
 -1.075238e-04  -7.079099e-04  0 
 -3.507909e-05  -7.075782e-04  0 
 3.731593e-05  -7.075773e-04  0 
 1.097587e-04  -7.079075e-04  0 
 1.822744e-04  -7.084459e-04  0 
 -1.234969e-04  -9.054608e-04  0 
 -4.040383e-05  -9.052781e-04  0 
 4.263835e-05  -9.052779e-04  0 
 1.257316e-04  -9.054604e-04  0 
 2.089734e-04  -9.059151e-04  0 
CELL_DATA 5
TENSORS element_stresses FLOAT
 -4.607078e-03  -4.322435e-04  0 
 -4.322435e-04  -1.133748e-03  0 
 0  0  0 

 -2.298024e-03  -4.927969e-04  0 
 -4.927969e-04  -5.608124e-04  0 
 0  0  0 

 -1.651053e-07  -5.236585e-04  0 
 -5.236585e-04  2.205928e-07  0 
 0  0  0 

 2.297893e-03  -4.933524e-04  0 
 -4.933524e-04  5.611996e-04  0 
 0  0  0 

 4.607374e-03  -4.329488e-04  0 
 -4.329488e-04  1.133925e-03  0 
 0  0  0 

TENSORS element_stresses FLOAT
 -4.607078e-03  -4.322435e-04  0 
 -4.322435e-04  -1.133748e-03  0 
 0  0  0 

 -2.298024e-03  -4.927969e-04  0 
 -4.927969e-04  -5.608124e-04  0 
 0  0  0 

 -1.651053e-07  -5.236585e-04  0 
 -5.236585e-04  2.205928e-07  0 
 0  0  0 

 2.297893e-03  -4.933524e-04  0 
 -4.933524e-04  5.611996e-04  0 
 0  0  0 

 4.607374e-03  -4.329488e-04  0 
 -4.329488e-04  1.133925e-03  0 
 0  0  0 

