# vtk DataFile Version 3.1
this is an vtk file created by FEMAC
ASCII
DATASET UNSTRUCTURED_GRID
POINTS 12 FLOAT
5.000000 0.000000 0.000000
5.500000 0.000000 0.000000
5.000000 0.200000 0.000000
5.000000 0.400000 0.000000
5.000000 0.600000 0.000000
5.000000 0.800000 0.000000
5.000000 1.000000 0.000000
5.500000 0.200000 0.000000
5.500000 0.400000 0.000000
5.500000 0.600000 0.000000
5.500000 0.800000 0.000000
5.500000 1.000000 0.000000
CELLS 5 25 
4 0 1 7 2
4 2 7 8 3
4 3 8 9 4
4 4  9 10  5
4 5 10 11  6
CELL_TYPES 5
9 9 9 9 9 
POINT_DATA 12
VECTORS displacement_ITER1 FLOAT
 -2.283294e-04  -1.567584e-03  0 
 -2.372868e-04  -1.803048e-03  0 
 -1.364268e-04  -1.567547e-03  0 
 -4.504963e-05  -1.567312e-03  0 
 4.679877e-05  -1.567300e-03  0 
 1.383485e-04  -1.567281e-03  0 
 2.302221e-04  -1.567450e-03  0 
 -1.418422e-04  -1.803084e-03  0 
 -4.703048e-05  -1.802759e-03  0 
 4.893685e-05  -1.802796e-03  0 
 1.435894e-04  -1.802862e-03  0 
 2.390546e-04  -1.802969e-03  0 
VECTORS displacement_ITER2 FLOAT
 -2.272788e-04  -1.564168e-03  0 
 -2.363781e-04  -1.798776e-03  0 
 -1.359670e-04  -1.563886e-03  0 
 -4.460291e-05  -1.563769e-03  0 
 4.683412e-05  -1.563711e-03  0 
 1.381376e-04  -1.563918e-03  0 
 2.294678e-04  -1.564174e-03  0 
 -1.412873e-04  -1.798588e-03  0 
 -4.632118e-05  -1.798595e-03  0 
 4.844884e-05  -1.798546e-03  0 
 1.435362e-04  -1.798588e-03  0 
 2.386516e-04  -1.798816e-03  0 
VECTORS displacement_ITER3 FLOAT
 -2.271559e-04  -1.563684e-03  0 
 -2.361343e-04  -1.798163e-03  0 
 -1.357938e-04  -1.563489e-03  0 
 -4.449305e-05  -1.563362e-03  0 
 4.672268e-05  -1.563357e-03  0 
 1.380230e-04  -1.563516e-03  0 
 2.293983e-04  -1.563700e-03  0 
 -1.411932e-04  -1.798018e-03  0 
 -4.632038e-05  -1.797970e-03  0 
 4.856187e-05  -1.797971e-03  0 
 1.434283e-04  -1.798033e-03  0 
 2.383526e-04  -1.798162e-03  0 
VECTORS displacement_ITER4 FLOAT
 -2.271668e-04  -1.563786e-03  0 
 -2.361595e-04  -1.798277e-03  0 
 -1.358063e-04  -1.563598e-03  0 
 -4.452819e-05  -1.563463e-03  0 
 4.675107e-05  -1.563461e-03  0 
 1.380466e-04  -1.563598e-03  0 
 2.294031e-04  -1.563786e-03  0 
 -1.412033e-04  -1.798139e-03  0 
 -4.630388e-05  -1.798095e-03  0 
 4.854030e-05  -1.798094e-03  0 
 1.434335e-04  -1.798139e-03  0 
 2.383930e-04  -1.798282e-03  0 
VECTORS displacement_ITER5 FLOAT
 -2.271683e-04  -1.563811e-03  0 
 -2.361720e-04  -1.798312e-03  0 
 -1.358196e-04  -1.563617e-03  0 
 -4.451663e-05  -1.563484e-03  0 
 4.675091e-05  -1.563483e-03  0 
 1.380558e-04  -1.563615e-03  0 
 2.294032e-04  -1.563810e-03  0 
 -1.412005e-04  -1.798168e-03  0 
 -4.631395e-05  -1.798120e-03  0 
 4.854952e-05  -1.798119e-03  0 
 1.434345e-04  -1.798167e-03  0 
 2.384063e-04  -1.798310e-03  0 
VECTORS displacement_ITER6 FLOAT
 -2.271719e-04  -1.563816e-03  0 
 -2.361697e-04  -1.798320e-03  0 
 -1.358188e-04  -1.563624e-03  0 
 -4.451743e-05  -1.563489e-03  0 
 4.675415e-05  -1.563490e-03  0 
 1.380527e-04  -1.563623e-03  0 
 2.294064e-04  -1.563816e-03  0 
 -1.412038e-04  -1.798175e-03  0 
 -4.631395e-05  -1.798126e-03  0 
 4.854852e-05  -1.798126e-03  0 
 1.434391e-04  -1.798174e-03  0 
 2.384049e-04  -1.798319e-03  0 
VECTORS displacement_ITER7 FLOAT
 -2.271714e-04  -1.563815e-03  0 
 -2.361701e-04  -1.798318e-03  0 
 -1.358193e-04  -1.563622e-03  0 
 -4.451718e-05  -1.563488e-03  0 
 4.675228e-05  -1.563488e-03  0 
 1.380535e-04  -1.563622e-03  0 
 2.294059e-04  -1.563815e-03  0 
 -1.412034e-04  -1.798173e-03  0 
 -4.631459e-05  -1.798125e-03  0 
 4.854896e-05  -1.798125e-03  0 
 1.434384e-04  -1.798173e-03  0 
 2.384052e-04  -1.798318e-03  0 
VECTORS displacement_ITER8 FLOAT
 -2.271712e-04  -1.563815e-03  0 
 -2.361701e-04  -1.798317e-03  0 
 -1.358188e-04  -1.563622e-03  0 
 -4.451781e-05  -1.563488e-03  0 
 4.675242e-05  -1.563488e-03  0 
 1.380536e-04  -1.563622e-03  0 
 2.294060e-04  -1.563815e-03  0 
 -1.412036e-04  -1.798173e-03  0 
 -4.631399e-05  -1.798124e-03  0 
 4.854883e-05  -1.798124e-03  0 
 1.434383e-04  -1.798173e-03  0 
 2.384048e-04  -1.798317e-03  0 
VECTORS displacement_ITER9 FLOAT
 -2.271712e-04  -1.563815e-03  0 
 -2.361701e-04  -1.798317e-03  0 
 -1.358189e-04  -1.563622e-03  0 
 -4.451772e-05  -1.563488e-03  0 
 4.675241e-05  -1.563488e-03  0 
 1.380536e-04  -1.563622e-03  0 
 2.294059e-04  -1.563815e-03  0 
 -1.412035e-04  -1.798173e-03  0 
 -4.631405e-05  -1.798124e-03  0 
 4.854877e-05  -1.798124e-03  0 
 1.434382e-04  -1.798173e-03  0 
 2.384048e-04  -1.798317e-03  0 
VECTORS displacement_ITER10 FLOAT
 -2.271712e-04  -1.563814e-03  0 
 -2.361701e-04  -1.798317e-03  0 
 -1.358189e-04  -1.563622e-03  0 
 -4.451768e-05  -1.563487e-03  0 
 4.675241e-05  -1.563487e-03  0 
 1.380536e-04  -1.563622e-03  0 
 2.294059e-04  -1.563814e-03  0 
 -1.412035e-04  -1.798173e-03  0 
 -4.631406e-05  -1.798124e-03  0 
 4.854877e-05  -1.798124e-03  0 
 1.434382e-04  -1.798173e-03  0 
 2.384048e-04  -1.798317e-03  0 
CELL_DATA 5
TENSORS element_stresses FLOAT
 -1.552835e-03  -2.504486e-04  0 
 -2.504486e-04  -3.816014e-04  0 
 0  0  0 

 -7.740750e-04  -2.854626e-04  0 
 -2.854626e-04  -1.865707e-04  0 
 0  0  0 

 -3.004919e-10  -3.031710e-04  0 
 -3.031710e-04  3.076324e-09  0 
 0  0  0 

 7.740745e-04  -2.854641e-04  0 
 -2.854641e-04  1.865738e-04  0 
 0  0  0 

 1.552836e-03  -2.504537e-04  0 
 -2.504537e-04  3.816005e-04  0 
 0  0  0 

TENSORS element_stresses FLOAT
 -1.552835e-03  -2.504486e-04  0 
 -2.504486e-04  -3.816014e-04  0 
 0  0  0 

 -7.740750e-04  -2.854626e-04  0 
 -2.854626e-04  -1.865707e-04  0 
 0  0  0 

 -3.004919e-10  -3.031710e-04  0 
 -3.031710e-04  3.076324e-09  0 
 0  0  0 

 7.740745e-04  -2.854641e-04  0 
 -2.854641e-04  1.865738e-04  0 
 0  0  0 

 1.552836e-03  -2.504537e-04  0 
 -2.504537e-04  3.816005e-04  0 
 0  0  0 

