# vtk DataFile Version 3.1
this is an vtk file created by FEMAC
ASCII
DATASET UNSTRUCTURED_GRID
POINTS 12 FLOAT
7.500000 0.000000 0.000000
8.000000 0.000000 0.000000
7.500000 0.200000 0.000000
7.500000 0.400000 0.000000
7.500000 0.600000 0.000000
7.500000 0.800000 0.000000
7.500000 1.000000 0.000000
8.000000 0.200000 0.000000
8.000000 0.400000 0.000000
8.000000 0.600000 0.000000
8.000000 0.800000 0.000000
8.000000 1.000000 0.000000
CELLS 5 25 
4 0 1 7 2
4 2 7 8 3
4 3 8 9 4
4 4  9 10  5
4 5 10 11  6
CELL_TYPES 5
9 9 9 9 9 
POINT_DATA 12
VECTORS displacement_ITER1 FLOAT
 -2.427540e-04  -2.769490e-03  0 
 -2.427612e-04  -3.013269e-03  0 
 -1.452508e-04  -2.769518e-03  0 
 -4.779024e-05  -2.769534e-03  0 
 4.971235e-05  -2.769550e-03  0 
 1.471654e-04  -2.769514e-03  0 
 2.446521e-04  -2.769510e-03  0 
 -1.452629e-04  -3.013253e-03  0 
 -4.777034e-05  -3.013245e-03  0 
 4.968948e-05  -3.013236e-03  0 
 1.471764e-04  -3.013249e-03  0 
 2.446714e-04  -3.013254e-03  0 
VECTORS displacement_ITER2 FLOAT
 -2.416227e-04  -2.762731e-03  0 
 -2.416307e-04  -3.005474e-03  0 
 -1.445119e-04  -2.762715e-03  0 
 -4.742867e-05  -2.762710e-03  0 
 4.964460e-05  -2.762710e-03  0 
 1.467462e-04  -2.762723e-03  0 
 2.438527e-04  -2.762728e-03  0 
 -1.445381e-04  -3.005475e-03  0 
 -4.743731e-05  -3.005470e-03  0 
 4.966604e-05  -3.005474e-03  0 
 1.467617e-04  -3.005477e-03  0 
 2.438583e-04  -3.005480e-03  0 
VECTORS displacement_ITER3 FLOAT
 -2.414313e-04  -2.761084e-03  0 
 -2.414418e-04  -3.003640e-03  0 
 -1.444046e-04  -2.761075e-03  0 
 -4.739471e-05  -2.761074e-03  0 
 4.961353e-05  -2.761074e-03  0 
 1.466207e-04  -2.761075e-03  0 
 2.436483e-04  -2.761084e-03  0 
 -1.444221e-04  -3.003640e-03  0 
 -4.740042e-05  -3.003635e-03  0 
 4.961760e-05  -3.003634e-03  0 
 1.466398e-04  -3.003639e-03  0 
 2.436587e-04  -3.003640e-03  0 
VECTORS displacement_ITER4 FLOAT
 -2.414582e-04  -2.761358e-03  0 
 -2.414684e-04  -3.003953e-03  0 
 -1.444157e-04  -2.761349e-03  0 
 -4.738975e-05  -2.761348e-03  0 
 4.963045e-05  -2.761348e-03  0 
 1.466563e-04  -2.761349e-03  0 
 2.436987e-04  -2.761359e-03  0 
 -1.444335e-04  -3.003952e-03  0 
 -4.739698e-05  -3.003947e-03  0 
 4.963761e-05  -3.003947e-03  0 
 1.466741e-04  -3.003952e-03  0 
 2.437090e-04  -3.003953e-03  0 
VECTORS displacement_ITER5 FLOAT
 -2.414681e-04  -2.761413e-03  0 
 -2.414782e-04  -3.004015e-03  0 
 -1.444226e-04  -2.761405e-03  0 
 -4.739436e-05  -2.761403e-03  0 
 4.962919e-05  -2.761403e-03  0 
 1.466571e-04  -2.761404e-03  0 
 2.437027e-04  -2.761414e-03  0 
 -1.444406e-04  -3.004014e-03  0 
 -4.740119e-05  -3.004009e-03  0 
 4.963583e-05  -3.004009e-03  0 
 1.466753e-04  -3.004014e-03  0 
 2.437128e-04  -3.004015e-03  0 
VECTORS displacement_ITER6 FLOAT
 -2.414701e-04  -2.761426e-03  0 
 -2.414802e-04  -3.004029e-03  0 
 -1.444239e-04  -2.761417e-03  0 
 -4.739515e-05  -2.761416e-03  0 
 4.962919e-05  -2.761416e-03  0 
 1.466579e-04  -2.761417e-03  0 
 2.437041e-04  -2.761426e-03  0 
 -1.444420e-04  -3.004029e-03  0 
 -4.740184e-05  -3.004024e-03  0 
 4.963588e-05  -3.004024e-03  0 
 1.466761e-04  -3.004029e-03  0 
 2.437143e-04  -3.004029e-03  0 
VECTORS displacement_ITER7 FLOAT
 -2.414691e-04  -2.761424e-03  0 
 -2.414792e-04  -3.004027e-03  0 
 -1.444231e-04  -2.761415e-03  0 
 -4.739458e-05  -2.761414e-03  0 
 4.962948e-05  -2.761414e-03  0 
 1.466580e-04  -2.761415e-03  0 
 2.437041e-04  -2.761424e-03  0 
 -1.444412e-04  -3.004026e-03  0 
 -4.740129e-05  -3.004021e-03  0 
 4.963622e-05  -3.004021e-03  0 
 1.466762e-04  -3.004026e-03  0 
 2.437142e-04  -3.004027e-03  0 
VECTORS displacement_ITER8 FLOAT
 -2.414690e-04  -2.761422e-03  0 
 -2.414791e-04  -3.004025e-03  0 
 -1.444231e-04  -2.761413e-03  0 
 -4.739461e-05  -2.761412e-03  0 
 4.962941e-05  -2.761412e-03  0 
 1.466579e-04  -2.761413e-03  0 
 2.437038e-04  -2.761422e-03  0 
 -1.444412e-04  -3.004024e-03  0 
 -4.740132e-05  -3.004019e-03  0 
 4.963613e-05  -3.004019e-03  0 
 1.466760e-04  -3.004024e-03  0 
 2.437140e-04  -3.004025e-03  0 
VECTORS displacement_ITER9 FLOAT
 -2.414691e-04  -2.761422e-03  0 
 -2.414792e-04  -3.004025e-03  0 
 -1.444231e-04  -2.761413e-03  0 
 -4.739465e-05  -2.761412e-03  0 
 4.962936e-05  -2.761412e-03  0 
 1.466578e-04  -2.761413e-03  0 
 2.437038e-04  -2.761422e-03  0 
 -1.444413e-04  -3.004024e-03  0 
 -4.740137e-05  -3.004019e-03  0 
 4.963608e-05  -3.004019e-03  0 
 1.466760e-04  -3.004024e-03  0 
 2.437139e-04  -3.004025e-03  0 
VECTORS displacement_ITER10 FLOAT
 -2.414691e-04  -2.761422e-03  0 
 -2.414792e-04  -3.004025e-03  0 
 -1.444231e-04  -2.761413e-03  0 
 -4.739465e-05  -2.761412e-03  0 
 4.962936e-05  -2.761412e-03  0 
 1.466578e-04  -2.761413e-03  0 
 2.437038e-04  -2.761422e-03  0 
 -1.444413e-04  -3.004024e-03  0 
 -4.740137e-05  -3.004019e-03  0 
 4.963608e-05  -3.004019e-03  0 
 1.466760e-04  -3.004024e-03  0 
 2.437139e-04  -3.004025e-03  0 
CELL_DATA 5
TENSORS element_stresses FLOAT
 -2.307069e-05  -2.899811e-06  0 
 -2.899811e-06  1.723130e-05  0 
 0  0  0 

 -2.203823e-05  -3.626420e-05  0 
 -3.626420e-05  9.397789e-06  0 
 0  0  0 

 -4.911422e-10  -4.667100e-05  0 
 -4.667100e-05  2.632259e-10  0 
 0  0  0 

 2.203831e-05  -3.626545e-05  0 
 -3.626545e-05  -9.397478e-06  0 
 0  0  0 

 2.307111e-05  -2.899535e-06  0 
 -2.899535e-06  -1.723174e-05  0 
 0  0  0 

TENSORS element_stresses FLOAT
 -2.307069e-05  -2.899811e-06  0 
 -2.899811e-06  1.723130e-05  0 
 0  0  0 

 -2.203823e-05  -3.626420e-05  0 
 -3.626420e-05  9.397789e-06  0 
 0  0  0 

 -4.911422e-10  -4.667100e-05  0 
 -4.667100e-05  2.632259e-10  0 
 0  0  0 

 2.203831e-05  -3.626545e-05  0 
 -3.626545e-05  -9.397478e-06  0 
 0  0  0 

 2.307111e-05  -2.899535e-06  0 
 -2.899535e-06  -1.723174e-05  0 
 0  0  0 

