# vtk DataFile Version 3.1
this is an vtk file created by FEMAC
ASCII
DATASET UNSTRUCTURED_GRID
POINTS 12 FLOAT
6.500000 0.000000 0.000000
7.000000 0.000000 0.000000
6.500000 0.200000 0.000000
6.500000 0.400000 0.000000
6.500000 0.600000 0.000000
6.500000 0.800000 0.000000
6.500000 1.000000 0.000000
7.000000 0.200000 0.000000
7.000000 0.400000 0.000000
7.000000 0.600000 0.000000
7.000000 0.800000 0.000000
7.000000 1.000000 0.000000
CELLS 5 25 
4 0 1 7 2
4 2 7 8 3
4 3 8 9 4
4 4  9 10  5
4 5 10 11  6
CELL_TYPES 5
9 9 9 9 9 
POINT_DATA 12
VECTORS displacement_ITER1 FLOAT
 -2.415802e-04  -2.283158e-03  0 
 -2.418112e-04  -2.525839e-03  0 
 -1.445518e-04  -2.283089e-03  0 
 -4.751536e-05  -2.283076e-03  0 
 4.941079e-05  -2.283063e-03  0 
 1.464522e-04  -2.283062e-03  0 
 2.434492e-04  -2.283150e-03  0 
 -1.446566e-04  -2.525830e-03  0 
 -4.760381e-05  -2.525789e-03  0 
 4.949293e-05  -2.525791e-03  0 
 1.465371e-04  -2.525804e-03  0 
 2.437137e-04  -2.525822e-03  0 
VECTORS displacement_ITER2 FLOAT
 -2.407240e-04  -2.277860e-03  0 
 -2.409263e-04  -2.519872e-03  0 
 -1.439557e-04  -2.277813e-03  0 
 -4.723503e-05  -2.277794e-03  0 
 4.947605e-05  -2.277796e-03  0 
 1.461947e-04  -2.277815e-03  0 
 2.429697e-04  -2.277860e-03  0 
 -1.441027e-04  -2.519843e-03  0 
 -4.728048e-05  -2.519819e-03  0 
 4.952242e-05  -2.519823e-03  0 
 1.463454e-04  -2.519854e-03  0 
 2.431605e-04  -2.519870e-03  0 
VECTORS displacement_ITER3 FLOAT
 -2.404849e-04  -2.276691e-03  0 
 -2.406896e-04  -2.518444e-03  0 
 -1.438145e-04  -2.276634e-03  0 
 -4.719604e-05  -2.276620e-03  0 
 4.941135e-05  -2.276620e-03  0 
 1.460325e-04  -2.276634e-03  0 
 2.427031e-04  -2.276691e-03  0 
 -1.439589e-04  -2.518423e-03  0 
 -4.724481e-05  -2.518398e-03  0 
 4.946298e-05  -2.518397e-03  0 
 1.461752e-04  -2.518423e-03  0 
 2.429067e-04  -2.518445e-03  0 
VECTORS displacement_ITER4 FLOAT
 -2.405159e-04  -2.276884e-03  0 
 -2.407200e-04  -2.518682e-03  0 
 -1.438302e-04  -2.276830e-03  0 
 -4.719159e-05  -2.276815e-03  0 
 4.943160e-05  -2.276815e-03  0 
 1.460702e-04  -2.276829e-03  0 
 2.427549e-04  -2.276883e-03  0 
 -1.439730e-04  -2.518660e-03  0 
 -4.723972e-05  -2.518634e-03  0 
 4.947937e-05  -2.518634e-03  0 
 1.462124e-04  -2.518659e-03  0 
 2.429600e-04  -2.518681e-03  0 
VECTORS displacement_ITER5 FLOAT
 -2.405239e-04  -2.276927e-03  0 
 -2.407292e-04  -2.518730e-03  0 
 -1.438364e-04  -2.276872e-03  0 
 -4.719570e-05  -2.276858e-03  0 
 4.943015e-05  -2.276858e-03  0 
 1.460710e-04  -2.276872e-03  0 
 2.427584e-04  -2.276927e-03  0 
 -1.439787e-04  -2.518708e-03  0 
 -4.724404e-05  -2.518682e-03  0 
 4.947855e-05  -2.518682e-03  0 
 1.462131e-04  -2.518708e-03  0 
 2.429638e-04  -2.518730e-03  0 
VECTORS displacement_ITER6 FLOAT
 -2.405259e-04  -2.276936e-03  0 
 -2.407312e-04  -2.518741e-03  0 
 -1.438379e-04  -2.276881e-03  0 
 -4.719620e-05  -2.276867e-03  0 
 4.943033e-05  -2.276867e-03  0 
 1.460720e-04  -2.276881e-03  0 
 2.427602e-04  -2.276936e-03  0 
 -1.439799e-04  -2.518719e-03  0 
 -4.724475e-05  -2.518693e-03  0 
 4.947895e-05  -2.518693e-03  0 
 1.462141e-04  -2.518719e-03  0 
 2.429654e-04  -2.518741e-03  0 
VECTORS displacement_ITER7 FLOAT
 -2.405250e-04  -2.276935e-03  0 
 -2.407303e-04  -2.518739e-03  0 
 -1.438372e-04  -2.276880e-03  0 
 -4.719567e-05  -2.276866e-03  0 
 4.943061e-05  -2.276866e-03  0 
 1.460721e-04  -2.276880e-03  0 
 2.427599e-04  -2.276934e-03  0 
 -1.439792e-04  -2.518717e-03  0 
 -4.724424e-05  -2.518692e-03  0 
 4.947917e-05  -2.518692e-03  0 
 1.462142e-04  -2.518717e-03  0 
 2.429652e-04  -2.518739e-03  0 
VECTORS displacement_ITER8 FLOAT
 -2.405249e-04  -2.276933e-03  0 
 -2.407302e-04  -2.518738e-03  0 
 -1.438371e-04  -2.276879e-03  0 
 -4.719571e-05  -2.276864e-03  0 
 4.943052e-05  -2.276864e-03  0 
 1.460719e-04  -2.276879e-03  0 
 2.427597e-04  -2.276933e-03  0 
 -1.439792e-04  -2.518716e-03  0 
 -4.724427e-05  -2.518690e-03  0 
 4.947906e-05  -2.518690e-03  0 
 1.462140e-04  -2.518716e-03  0 
 2.429650e-04  -2.518738e-03  0 
VECTORS displacement_ITER9 FLOAT
 -2.405250e-04  -2.276933e-03  0 
 -2.407303e-04  -2.518738e-03  0 
 -1.438372e-04  -2.276879e-03  0 
 -4.719577e-05  -2.276864e-03  0 
 4.943047e-05  -2.276864e-03  0 
 1.460719e-04  -2.276879e-03  0 
 2.427597e-04  -2.276933e-03  0 
 -1.439792e-04  -2.518716e-03  0 
 -4.724432e-05  -2.518690e-03  0 
 4.947901e-05  -2.518690e-03  0 
 1.462139e-04  -2.518716e-03  0 
 2.429650e-04  -2.518738e-03  0 
VECTORS displacement_ITER10 FLOAT
 -2.405250e-04  -2.276933e-03  0 
 -2.407303e-04  -2.518738e-03  0 
 -1.438372e-04  -2.276879e-03  0 
 -4.719575e-05  -2.276864e-03  0 
 4.943047e-05  -2.276864e-03  0 
 1.460719e-04  -2.276879e-03  0 
 2.427597e-04  -2.276933e-03  0 
 -1.439792e-04  -2.518716e-03  0 
 -4.724431e-05  -2.518690e-03  0 
 4.947902e-05  -2.518690e-03  0 
 1.462139e-04  -2.518716e-03  0 
 2.429650e-04  -2.518738e-03  0 
CELL_DATA 5
TENSORS element_stresses FLOAT
 -3.185851e-04  -3.464223e-05  0 
 -3.464223e-05  9.592326e-05  0 
 0  0  0 

 -1.763547e-04  -1.710338e-04  0 
 -1.710338e-04  4.754052e-05  0 
 0  0  0 

 1.133581e-09  -2.136500e-04  0 
 -2.136500e-04  2.530953e-10  0 
 0  0  0 

 1.763549e-04  -1.710318e-04  0 
 -1.710318e-04  -4.754038e-05  0 
 0  0  0 

 3.185838e-04  -3.464205e-05  0 
 -3.464205e-05  -9.592333e-05  0 
 0  0  0 

TENSORS element_stresses FLOAT
 -3.185851e-04  -3.464223e-05  0 
 -3.464223e-05  9.592326e-05  0 
 0  0  0 

 -1.763547e-04  -1.710338e-04  0 
 -1.710338e-04  4.754052e-05  0 
 0  0  0 

 1.133581e-09  -2.136500e-04  0 
 -2.136500e-04  2.530953e-10  0 
 0  0  0 

 1.763549e-04  -1.710318e-04  0 
 -1.710318e-04  -4.754038e-05  0 
 0  0  0 

 3.185838e-04  -3.464205e-05  0 
 -3.464205e-05  -9.592333e-05  0 
 0  0  0 

