# vtk DataFile Version 3.1
this is an vtk file created by FEMAC
ASCII
DATASET UNSTRUCTURED_GRID
POINTS 12 FLOAT
2.500000 0.000000 0.000000
3.000000 0.000000 0.000000
2.500000 0.200000 0.000000
2.500000 0.400000 0.000000
2.500000 0.600000 0.000000
2.500000 0.800000 0.000000
2.500000 1.000000 0.000000
3.000000 0.200000 0.000000
3.000000 0.400000 0.000000
3.000000 0.600000 0.000000
3.000000 0.800000 0.000000
3.000000 1.000000 0.000000
CELLS 5 25 
4 0 1 7 2
4 2 7 8 3
4 3 8 9 4
4 4  9 10  5
4 5 10 11  6
CELL_TYPES 5
9 9 9 9 9 
POINT_DATA 12
VECTORS displacement_ITER1 FLOAT
 -1.770349e-04  -5.289303e-04  0 
 -1.807539e-04  -7.090551e-04  0 
 -1.057852e-04  -5.282823e-04  0 
 -3.464626e-05  -5.280457e-04  0 
 3.652865e-05  -5.280544e-04  0 
 1.076909e-04  -5.283125e-04  0 
 1.789483e-04  -5.289839e-04  0 
 -1.079738e-04  -7.085285e-04  0 
 -3.527886e-05  -7.082295e-04  0 
 3.722068e-05  -7.082121e-04  0 
 1.098614e-04  -7.085320e-04  0 
 1.826189e-04  -7.090474e-04  0 
VECTORS displacement_ITER2 FLOAT
 -1.764153e-04  -5.287709e-04  0 
 -1.800612e-04  -7.083565e-04  0 
 -1.053002e-04  -5.280951e-04  0 
 -3.435019e-05  -5.278187e-04  0 
 3.656194e-05  -5.278233e-04  0 
 1.074793e-04  -5.281079e-04  0 
 1.786006e-04  -5.287958e-04  0 
 -1.075241e-04  -7.078204e-04  0 
 -3.508319e-05  -7.074966e-04  0 
 3.728076e-05  -7.074952e-04  0 
 1.097246e-04  -7.078228e-04  0 
 1.822462e-04  -7.083506e-04  0 
VECTORS displacement_ITER3 FLOAT
 -1.763976e-04  -5.288376e-04  0 
 -1.800190e-04  -7.084200e-04  0 
 -1.052663e-04  -5.281630e-04  0 
 -3.431178e-05  -5.278809e-04  0 
 3.656382e-05  -5.278840e-04  0 
 1.074987e-04  -5.281714e-04  0 
 1.786292e-04  -5.288513e-04  0 
 -1.075067e-04  -7.078785e-04  0 
 -3.507375e-05  -7.075501e-04  0 
 3.731184e-05  -7.075511e-04  0 
 1.097543e-04  -7.078815e-04  0 
 1.822594e-04  -7.084209e-04  0 
VECTORS displacement_ITER4 FLOAT
 -1.764207e-04  -5.288445e-04  0 
 -1.800435e-04  -7.084465e-04  0 
 -1.052796e-04  -5.281696e-04  0 
 -3.432384e-05  -5.278883e-04  0 
 3.655925e-05  -5.278906e-04  0 
 1.075110e-04  -5.281750e-04  0 
 1.786483e-04  -5.288509e-04  0 
 -1.075249e-04  -7.079076e-04  0 
 -3.508261e-05  -7.075761e-04  0 
 3.731535e-05  -7.075754e-04  0 
 1.097592e-04  -7.079064e-04  0 
 1.822748e-04  -7.084458e-04  0 
VECTORS displacement_ITER5 FLOAT
 -1.764178e-04  -5.288469e-04  0 
 -1.800415e-04  -7.084466e-04  0 
 -1.052766e-04  -5.281715e-04  0 
 -3.432425e-05  -5.278902e-04  0 
 3.656069e-05  -5.278919e-04  0 
 1.075108e-04  -5.281761e-04  0 
 1.786476e-04  -5.288521e-04  0 
 -1.075232e-04  -7.079083e-04  0 
 -3.508019e-05  -7.075763e-04  0 
 3.731614e-05  -7.075754e-04  0 
 1.097578e-04  -7.079058e-04  0 
 1.822736e-04  -7.084441e-04  0 
VECTORS displacement_ITER6 FLOAT
 -1.764181e-04  -5.288485e-04  0 
 -1.800418e-04  -7.084492e-04  0 
 -1.052763e-04  -5.281733e-04  0 
 -3.432445e-05  -5.278919e-04  0 
 3.656170e-05  -5.278937e-04  0 
 1.075114e-04  -5.281779e-04  0 
 1.786484e-04  -5.288540e-04  0 
 -1.075236e-04  -7.079105e-04  0 
 -3.507908e-05  -7.075787e-04  0 
 3.731630e-05  -7.075779e-04  0 
 1.097586e-04  -7.079080e-04  0 
 1.822745e-04  -7.084464e-04  0 
VECTORS displacement_ITER7 FLOAT
 -1.764185e-04  -5.288480e-04  0 
 -1.800420e-04  -7.084490e-04  0 
 -1.052765e-04  -5.281729e-04  0 
 -3.432470e-05  -5.278915e-04  0 
 3.656185e-05  -5.278933e-04  0 
 1.075113e-04  -5.281775e-04  0 
 1.786485e-04  -5.288537e-04  0 
 -1.075239e-04  -7.079103e-04  0 
 -3.507911e-05  -7.075785e-04  0 
 3.731604e-05  -7.075776e-04  0 
 1.097588e-04  -7.079078e-04  0 
 1.822746e-04  -7.084463e-04  0 
VECTORS displacement_ITER8 FLOAT
 -1.764184e-04  -5.288478e-04  0 
 -1.800419e-04  -7.084486e-04  0 
 -1.052764e-04  -5.281727e-04  0 
 -3.432471e-05  -5.278913e-04  0 
 3.656184e-05  -5.278932e-04  0 
 1.075111e-04  -5.281774e-04  0 
 1.786484e-04  -5.288535e-04  0 
 -1.075238e-04  -7.079099e-04  0 
 -3.507909e-05  -7.075782e-04  0 
 3.731594e-05  -7.075773e-04  0 
 1.097587e-04  -7.079075e-04  0 
 1.822744e-04  -7.084459e-04  0 
VECTORS displacement_ITER9 FLOAT
 -1.764184e-04  -5.288478e-04  0 
 -1.800419e-04  -7.084486e-04  0 
 -1.052764e-04  -5.281727e-04  0 
 -3.432471e-05  -5.278913e-04  0 
 3.656184e-05  -5.278932e-04  0 
 1.075111e-04  -5.281774e-04  0 
 1.786484e-04  -5.288535e-04  0 
 -1.075238e-04  -7.079099e-04  0 
 -3.507910e-05  -7.075782e-04  0 
 3.731593e-05  -7.075773e-04  0 
 1.097587e-04  -7.079075e-04  0 
 1.822744e-04  -7.084459e-04  0 
VECTORS displacement_ITER10 FLOAT
 -1.764184e-04  -5.288478e-04  0 
 -1.800419e-04  -7.084486e-04  0 
 -1.052764e-04  -5.281726e-04  0 
 -3.432471e-05  -5.278913e-04  0 
 3.656184e-05  -5.278931e-04  0 
 1.075111e-04  -5.281774e-04  0 
 1.786484e-04  -5.288535e-04  0 
 -1.075238e-04  -7.079099e-04  0 
 -3.507910e-05  -7.075782e-04  0 
 3.731594e-05  -7.075773e-04  0 
 1.097587e-04  -7.079075e-04  0 
 1.822744e-04  -7.084459e-04  0 
CELL_DATA 5
TENSORS element_stresses FLOAT
 -5.451077e-03  -1.445200e-04  0 
 -1.445200e-04  1.399265e-03  0 
 0  0  0 

 -2.793451e-03  -7.177974e-04  0 
 -7.177974e-04  6.945080e-04  0 
 0  0  0 

 -1.055099e-06  -8.977213e-04  0 
 -8.977213e-04  -2.531578e-06  0 
 0  0  0 

 2.792105e-03  -7.186143e-04  0 
 -7.186143e-04  -6.984801e-04  0 
 0  0  0 

 5.453478e-03  -1.463469e-04  0 
 -1.463469e-04  -1.400273e-03  0 
 0  0  0 

TENSORS element_stresses FLOAT
 -5.451077e-03  -1.445200e-04  0 
 -1.445200e-04  1.399265e-03  0 
 0  0  0 

 -2.793451e-03  -7.177974e-04  0 
 -7.177974e-04  6.945080e-04  0 
 0  0  0 

 -1.055099e-06  -8.977213e-04  0 
 -8.977213e-04  -2.531578e-06  0 
 0  0  0 

 2.792105e-03  -7.186143e-04  0 
 -7.186143e-04  -6.984801e-04  0 
 0  0  0 

 5.453478e-03  -1.463469e-04  0 
 -1.463469e-04  -1.400273e-03  0 
 0  0  0 

