# vtk DataFile Version 3.1
this is an vtk file created by FEMAC
ASCII
DATASET UNSTRUCTURED_GRID
POINTS 12 FLOAT
4.500000 0.000000 0.000000
5.000000 0.000000 0.000000
4.500000 0.200000 0.000000
4.500000 0.400000 0.000000
4.500000 0.600000 0.000000
4.500000 0.800000 0.000000
4.500000 1.000000 0.000000
5.000000 0.200000 0.000000
5.000000 0.400000 0.000000
5.000000 0.600000 0.000000
5.000000 0.800000 0.000000
5.000000 1.000000 0.000000
CELLS 5 25 
4 0 1 7 2
4 2 7 8 3
4 3 8 9 4
4 4  9 10  5
4 5 10 11  6
CELL_TYPES 5
9 9 9 9 9 
POINT_DATA 12
VECTORS displacement_ITER1 FLOAT
 -2.269166e-04  -1.338869e-03  0 
 -2.283113e-04  -1.567592e-03  0 
 -1.357051e-04  -1.338585e-03  0 
 -4.459530e-05  -1.338526e-03  0 
 4.646409e-05  -1.338524e-03  0 
 1.375478e-04  -1.338626e-03  0 
 2.287761e-04  -1.338868e-03  0 
 -1.365818e-04  -1.567387e-03  0 
 -4.485429e-05  -1.567247e-03  0 
 4.672660e-05  -1.567245e-03  0 
 1.384363e-04  -1.567401e-03  0 
 2.301480e-04  -1.567604e-03  0 
VECTORS displacement_ITER2 FLOAT
 -2.259252e-04  -1.336241e-03  0 
 -2.273145e-04  -1.564106e-03  0 
 -1.350383e-04  -1.335958e-03  0 
 -4.427358e-05  -1.335858e-03  0 
 4.647200e-05  -1.335854e-03  0 
 1.372366e-04  -1.335964e-03  0 
 2.281271e-04  -1.336229e-03  0 
 -1.359095e-04  -1.563924e-03  0 
 -4.455705e-05  -1.563784e-03  0 
 4.675422e-05  -1.563792e-03  0 
 1.381079e-04  -1.563914e-03  0 
 2.295096e-04  -1.564105e-03  0 
VECTORS displacement_ITER3 FLOAT
 -2.257602e-04  -1.335965e-03  0 
 -2.271470e-04  -1.563692e-03  0 
 -1.349311e-04  -1.335686e-03  0 
 -4.422305e-05  -1.335587e-03  0 
 4.645403e-05  -1.335584e-03  0 
 1.371676e-04  -1.335686e-03  0 
 2.279959e-04  -1.335963e-03  0 
 -1.358062e-04  -1.563500e-03  0 
 -4.451376e-05  -1.563363e-03  0 
 4.674782e-05  -1.563365e-03  0 
 1.380400e-04  -1.563498e-03  0 
 2.293803e-04  -1.563691e-03  0 
VECTORS displacement_ITER4 FLOAT
 -2.257772e-04  -1.336045e-03  0 
 -2.271661e-04  -1.563790e-03  0 
 -1.349447e-04  -1.335767e-03  0 
 -4.422441e-05  -1.335664e-03  0 
 4.645776e-05  -1.335663e-03  0 
 1.371784e-04  -1.335768e-03  0 
 2.280102e-04  -1.336045e-03  0 
 -1.358167e-04  -1.563596e-03  0 
 -4.451622e-05  -1.563461e-03  0 
 4.675067e-05  -1.563462e-03  0 
 1.380492e-04  -1.563595e-03  0 
 2.293985e-04  -1.563789e-03  0 
VECTORS displacement_ITER5 FLOAT
 -2.257805e-04  -1.336062e-03  0 
 -2.271695e-04  -1.563810e-03  0 
 -1.349469e-04  -1.335785e-03  0 
 -4.422432e-05  -1.335680e-03  0 
 4.645963e-05  -1.335680e-03  0 
 1.371819e-04  -1.335784e-03  0 
 2.280154e-04  -1.336063e-03  0 
 -1.358177e-04  -1.563617e-03  0 
 -4.451726e-05  -1.563483e-03  0 
 4.675245e-05  -1.563483e-03  0 
 1.380528e-04  -1.563617e-03  0 
 2.294046e-04  -1.563810e-03  0 
VECTORS displacement_ITER6 FLOAT
 -2.257825e-04  -1.336067e-03  0 
 -2.271714e-04  -1.563816e-03  0 
 -1.349481e-04  -1.335789e-03  0 
 -4.422467e-05  -1.335684e-03  0 
 4.645985e-05  -1.335685e-03  0 
 1.371830e-04  -1.335789e-03  0 
 2.280174e-04  -1.336067e-03  0 
 -1.358189e-04  -1.563624e-03  0 
 -4.451761e-05  -1.563489e-03  0 
 4.675254e-05  -1.563489e-03  0 
 1.380540e-04  -1.563624e-03  0 
 2.294064e-04  -1.563816e-03  0 
VECTORS displacement_ITER7 FLOAT
 -2.257824e-04  -1.336066e-03  0 
 -2.271713e-04  -1.563815e-03  0 
 -1.349481e-04  -1.335788e-03  0 
 -4.422496e-05  -1.335684e-03  0 
 4.645961e-05  -1.335684e-03  0 
 1.371827e-04  -1.335788e-03  0 
 2.280170e-04  -1.336066e-03  0 
 -1.358189e-04  -1.563622e-03  0 
 -4.451777e-05  -1.563488e-03  0 
 4.675238e-05  -1.563488e-03  0 
 1.380536e-04  -1.563622e-03  0 
 2.294060e-04  -1.563815e-03  0 
VECTORS displacement_ITER8 FLOAT
 -2.257823e-04  -1.336065e-03  0 
 -2.271713e-04  -1.563815e-03  0 
 -1.349480e-04  -1.335787e-03  0 
 -4.422490e-05  -1.335683e-03  0 
 4.645964e-05  -1.335683e-03  0 
 1.371828e-04  -1.335788e-03  0 
 2.280170e-04  -1.336065e-03  0 
 -1.358189e-04  -1.563622e-03  0 
 -4.451766e-05  -1.563488e-03  0 
 4.675243e-05  -1.563488e-03  0 
 1.380536e-04  -1.563622e-03  0 
 2.294060e-04  -1.563815e-03  0 
VECTORS displacement_ITER9 FLOAT
 -2.257823e-04  -1.336065e-03  0 
 -2.271712e-04  -1.563815e-03  0 
 -1.349480e-04  -1.335788e-03  0 
 -4.422490e-05  -1.335683e-03  0 
 4.645963e-05  -1.335683e-03  0 
 1.371827e-04  -1.335788e-03  0 
 2.280170e-04  -1.336065e-03  0 
 -1.358189e-04  -1.563622e-03  0 
 -4.451768e-05  -1.563488e-03  0 
 4.675241e-05  -1.563488e-03  0 
 1.380536e-04  -1.563622e-03  0 
 2.294059e-04  -1.563815e-03  0 
VECTORS displacement_ITER10 FLOAT
 -2.257823e-04  -1.336065e-03  0 
 -2.271712e-04  -1.563814e-03  0 
 -1.349480e-04  -1.335787e-03  0 
 -4.422489e-05  -1.335683e-03  0 
 4.645963e-05  -1.335683e-03  0 
 1.371827e-04  -1.335787e-03  0 
 2.280170e-04  -1.336065e-03  0 
 -1.358189e-04  -1.563622e-03  0 
 -4.451768e-05  -1.563487e-03  0 
 4.675241e-05  -1.563487e-03  0 
 1.380536e-04  -1.563622e-03  0 
 2.294059e-04  -1.563814e-03  0 
CELL_DATA 5
TENSORS element_stresses FLOAT
 -2.095629e-03  -9.005232e-05  0 
 -9.005232e-05  5.472676e-04  0 
 0  0  0 

 -1.082022e-03  -4.446158e-04  0 
 -4.446158e-04  2.720872e-04  0 
 0  0  0 

 -5.824365e-09  -5.556463e-04  0 
 -5.556463e-04  -1.654581e-08  0 
 0  0  0 

 1.082013e-03  -4.446220e-04  0 
 -4.446220e-04  -2.721140e-04  0 
 0  0  0 

 2.095644e-03  -9.006358e-05  0 
 -9.006358e-05  -5.472714e-04  0 
 0  0  0 

TENSORS element_stresses FLOAT
 -2.095629e-03  -9.005232e-05  0 
 -9.005232e-05  5.472676e-04  0 
 0  0  0 

 -1.082022e-03  -4.446158e-04  0 
 -4.446158e-04  2.720872e-04  0 
 0  0  0 

 -5.824365e-09  -5.556463e-04  0 
 -5.556463e-04  -1.654581e-08  0 
 0  0  0 

 1.082013e-03  -4.446220e-04  0 
 -4.446220e-04  -2.721140e-04  0 
 0  0  0 

 2.095644e-03  -9.006358e-05  0 
 -9.006358e-05  -5.472714e-04  0 
 0  0  0 

