# vtk DataFile Version 3.1
this is an vtk file created by FEMAC
ASCII
DATASET UNSTRUCTURED_GRID
POINTS 12 FLOAT
1.500000 0.000000 0.000000
2.000000 0.000000 0.000000
1.500000 0.200000 0.000000
1.500000 0.400000 0.000000
1.500000 0.600000 0.000000
1.500000 0.800000 0.000000
1.500000 1.000000 0.000000
2.000000 0.200000 0.000000
2.000000 0.400000 0.000000
2.000000 0.600000 0.000000
2.000000 0.800000 0.000000
2.000000 1.000000 0.000000
CELLS 5 25 
4 0 1 7 2
4 2 7 8 3
4 3 8 9 4
4 4  9 10  5
4 5 10 11  6
CELL_TYPES 5
9 9 9 9 9 
POINT_DATA 12
VECTORS displacement_ITER1 FLOAT
 -1.321553e-04  -2.310957e-04  0 
 -1.373514e-04  -3.670634e-04  0 
 -7.873297e-05  -2.301350e-04  0 
 -2.562914e-05  -2.296718e-04  0 
 2.764745e-05  -2.295985e-04  0 
 8.090122e-05  -2.300356e-04  0 
 1.343418e-04  -2.309773e-04  0 
 -8.196524e-05  -3.663401e-04  0 
 -2.653524e-05  -3.659569e-04  0 
 2.870156e-05  -3.659457e-04  0 
 8.398605e-05  -3.663468e-04  0 
 1.394888e-04  -3.671178e-04  0 
VECTORS displacement_ITER2 FLOAT
 -1.321481e-04  -2.311215e-04  0 
 -1.372924e-04  -3.671806e-04  0 
 -7.869843e-05  -2.301656e-04  0 
 -2.553054e-05  -2.297231e-04  0 
 2.768256e-05  -2.296893e-04  0 
 8.092558e-05  -2.300978e-04  0 
 1.344090e-04  -2.310361e-04  0 
 -8.191948e-05  -3.664169e-04  0 
 -2.653385e-05  -3.659805e-04  0 
 2.872937e-05  -3.659839e-04  0 
 8.409452e-05  -3.664396e-04  0 
 1.395417e-04  -3.672275e-04  0 
VECTORS displacement_ITER3 FLOAT
 -1.321659e-04  -2.311393e-04  0 
 -1.373125e-04  -3.672562e-04  0 
 -7.871074e-05  -2.301903e-04  0 
 -2.549468e-05  -2.297625e-04  0 
 2.768911e-05  -2.297408e-04  0 
 8.094789e-05  -2.301345e-04  0 
 1.344540e-04  -2.310673e-04  0 
 -8.190406e-05  -3.664844e-04  0 
 -2.654272e-05  -3.660333e-04  0 
 2.874987e-05  -3.660431e-04  0 
 8.412775e-05  -3.665118e-04  0 
 1.395750e-04  -3.672921e-04  0 
VECTORS displacement_ITER4 FLOAT
 -1.321613e-04  -2.311338e-04  0 
 -1.373144e-04  -3.672557e-04  0 
 -7.871190e-05  -2.301875e-04  0 
 -2.548486e-05  -2.297628e-04  0 
 2.768560e-05  -2.297403e-04  0 
 8.094732e-05  -2.301329e-04  0 
 1.344540e-04  -2.310652e-04  0 
 -8.189408e-05  -3.664808e-04  0 
 -2.654531e-05  -3.660285e-04  0 
 2.875424e-05  -3.660413e-04  0 
 8.412466e-05  -3.665108e-04  0 
 1.395741e-04  -3.672893e-04  0 
VECTORS displacement_ITER5 FLOAT
 -1.321616e-04  -2.311346e-04  0 
 -1.373150e-04  -3.672580e-04  0 
 -7.871266e-05  -2.301885e-04  0 
 -2.548346e-05  -2.297642e-04  0 
 2.768527e-05  -2.297412e-04  0 
 8.094861e-05  -2.301335e-04  0 
 1.344550e-04  -2.310660e-04  0 
 -8.189333e-05  -3.664825e-04  0 
 -2.654644e-05  -3.660302e-04  0 
 2.875531e-05  -3.660431e-04  0 
 8.412534e-05  -3.665129e-04  0 
 1.395761e-04  -3.672919e-04  0 
VECTORS displacement_ITER6 FLOAT
 -1.321618e-04  -2.311357e-04  0 
 -1.373155e-04  -3.672594e-04  0 
 -7.871309e-05  -2.301894e-04  0 
 -2.548297e-05  -2.297651e-04  0 
 2.768517e-05  -2.297421e-04  0 
 8.094960e-05  -2.301343e-04  0 
 1.344554e-04  -2.310669e-04  0 
 -8.189318e-05  -3.664841e-04  0 
 -2.654677e-05  -3.660317e-04  0 
 2.875602e-05  -3.660443e-04  0 
 8.412555e-05  -3.665141e-04  0 
 1.395771e-04  -3.672933e-04  0 
VECTORS displacement_ITER7 FLOAT
 -1.321616e-04  -2.311355e-04  0 
 -1.373155e-04  -3.672591e-04  0 
 -7.871311e-05  -2.301892e-04  0 
 -2.548292e-05  -2.297649e-04  0 
 2.768498e-05  -2.297419e-04  0 
 8.094952e-05  -2.301342e-04  0 
 1.344551e-04  -2.310667e-04  0 
 -8.189305e-05  -3.664838e-04  0 
 -2.654686e-05  -3.660314e-04  0 
 2.875608e-05  -3.660440e-04  0 
 8.412525e-05  -3.665137e-04  0 
 1.395769e-04  -3.672929e-04  0 
VECTORS displacement_ITER8 FLOAT
 -1.321615e-04  -2.311355e-04  0 
 -1.373155e-04  -3.672591e-04  0 
 -7.871311e-05  -2.301891e-04  0 
 -2.548292e-05  -2.297648e-04  0 
 2.768495e-05  -2.297419e-04  0 
 8.094951e-05  -2.301341e-04  0 
 1.344551e-04  -2.310667e-04  0 
 -8.189306e-05  -3.664837e-04  0 
 -2.654687e-05  -3.660313e-04  0 
 2.875610e-05  -3.660440e-04  0 
 8.412521e-05  -3.665136e-04  0 
 1.395769e-04  -3.672929e-04  0 
VECTORS displacement_ITER9 FLOAT
 -1.321615e-04  -2.311355e-04  0 
 -1.373155e-04  -3.672591e-04  0 
 -7.871311e-05  -2.301891e-04  0 
 -2.548293e-05  -2.297648e-04  0 
 2.768495e-05  -2.297419e-04  0 
 8.094952e-05  -2.301341e-04  0 
 1.344551e-04  -2.310667e-04  0 
 -8.189306e-05  -3.664838e-04  0 
 -2.654687e-05  -3.660313e-04  0 
 2.875611e-05  -3.660440e-04  0 
 8.412520e-05  -3.665136e-04  0 
 1.395769e-04  -3.672929e-04  0 
VECTORS displacement_ITER10 FLOAT
 -1.321615e-04  -2.311355e-04  0 
 -1.373155e-04  -3.672591e-04  0 
 -7.871311e-05  -2.301891e-04  0 
 -2.548293e-05  -2.297648e-04  0 
 2.768495e-05  -2.297419e-04  0 
 8.094951e-05  -2.301341e-04  0 
 1.344551e-04  -2.310667e-04  0 
 -8.189306e-05  -3.664837e-04  0 
 -2.654687e-05  -3.660313e-04  0 
 2.875611e-05  -3.660439e-04  0 
 8.412519e-05  -3.665136e-04  0 
 1.395769e-04  -3.672929e-04  0 
CELL_DATA 5
TENSORS element_stresses FLOAT
 -7.739158e-03  -1.853136e-04  0 
 -1.853136e-04  1.982620e-03  0 
 0  0  0 

 -3.941065e-03  -8.616849e-04  0 
 -8.616849e-04  1.009436e-03  0 
 0  0  0 

 1.646463e-05  -1.070346e-03  0 
 -1.070346e-03  3.082408e-05  0 
 0  0  0 

 3.956457e-03  -8.441870e-04  0 
 -8.441870e-04  -9.679527e-04  0 
 0  0  0 

 7.707301e-03  -1.634689e-04  0 
 -1.634689e-04  -1.967226e-03  0 
 0  0  0 

TENSORS element_stresses FLOAT
 -7.739158e-03  -1.853136e-04  0 
 -1.853136e-04  1.982620e-03  0 
 0  0  0 

 -3.941065e-03  -8.616849e-04  0 
 -8.616849e-04  1.009436e-03  0 
 0  0  0 

 1.646463e-05  -1.070346e-03  0 
 -1.070346e-03  3.082408e-05  0 
 0  0  0 

 3.956457e-03  -8.441870e-04  0 
 -8.441870e-04  -9.679527e-04  0 
 0  0  0 

 7.707301e-03  -1.634689e-04  0 
 -1.634689e-04  -1.967226e-03  0 
 0  0  0 

