# vtk DataFile Version 3.1
this is an vtk file created by FEMAC
ASCII
DATASET UNSTRUCTURED_GRID
POINTS 12 FLOAT
7.000000 0.000000 0.000000
7.500000 0.000000 0.000000
7.000000 0.200000 0.000000
7.000000 0.400000 0.000000
7.000000 0.600000 0.000000
7.000000 0.800000 0.000000
7.000000 1.000000 0.000000
7.500000 0.200000 0.000000
7.500000 0.400000 0.000000
7.500000 0.600000 0.000000
7.500000 0.800000 0.000000
7.500000 1.000000 0.000000
CELLS 5 25 
4 0 1 7 2
4 2 7 8 3
4 3 8 9 4
4 4  9 10  5
4 5 10 11  6
CELL_TYPES 5
9 9 9 9 9 
POINT_DATA 12
VECTORS displacement_ITER1 FLOAT
 -2.416607e-04  -2.525809e-03  0 
 -2.428818e-04  -2.769734e-03  0 
 -1.449404e-04  -2.525711e-03  0 
 -4.762540e-05  -2.525740e-03  0 
 4.952443e-05  -2.525767e-03  0 
 1.469218e-04  -2.525934e-03  0 
 2.434525e-04  -2.525913e-03  0 
 -1.451199e-04  -2.769498e-03  0 
 -4.758269e-05  -2.769394e-03  0 
 4.954496e-05  -2.769305e-03  0 
 1.469927e-04  -2.769531e-03  0 
 2.447815e-04  -2.769653e-03  0 
VECTORS displacement_ITER2 FLOAT
 -2.409607e-04  -2.519887e-03  0 
 -2.415842e-04  -2.762703e-03  0 
 -1.440199e-04  -2.519887e-03  0 
 -4.729302e-05  -2.519858e-03  0 
 4.950116e-05  -2.519813e-03  0 
 1.462665e-04  -2.519783e-03  0 
 2.432248e-04  -2.519854e-03  0 
 -1.445989e-04  -2.762746e-03  0 
 -4.744380e-05  -2.762759e-03  0 
 4.973894e-05  -2.762753e-03  0 
 1.467590e-04  -2.762670e-03  0 
 2.438094e-04  -2.762685e-03  0 
VECTORS displacement_ITER3 FLOAT
 -2.406863e-04  -2.518442e-03  0 
 -2.414352e-04  -2.761084e-03  0 
 -1.439672e-04  -2.518422e-03  0 
 -4.722397e-05  -2.518392e-03  0 
 4.943485e-05  -2.518398e-03  0 
 1.461858e-04  -2.518432e-03  0 
 2.429084e-04  -2.518444e-03  0 
 -1.443938e-04  -2.761071e-03  0 
 -4.739572e-05  -2.761068e-03  0 
 4.960311e-05  -2.761070e-03  0 
 1.466207e-04  -2.761082e-03  0 
 2.436528e-04  -2.761090e-03  0 
VECTORS displacement_ITER4 FLOAT
 -2.407239e-04  -2.518682e-03  0 
 -2.414577e-04  -2.761358e-03  0 
 -1.439657e-04  -2.518657e-03  0 
 -4.724663e-05  -2.518632e-03  0 
 4.948753e-05  -2.518633e-03  0 
 1.462072e-04  -2.518660e-03  0 
 2.429605e-04  -2.518685e-03  0 
 -1.444167e-04  -2.761350e-03  0 
 -4.738986e-05  -2.761349e-03  0 
 4.963134e-05  -2.761349e-03  0 
 1.466569e-04  -2.761349e-03  0 
 2.436979e-04  -2.761357e-03  0 
VECTORS displacement_ITER5 FLOAT
 -2.407289e-04  -2.518730e-03  0 
 -2.414683e-04  -2.761413e-03  0 
 -1.439789e-04  -2.518708e-03  0 
 -4.724526e-05  -2.518682e-03  0 
 4.947995e-05  -2.518683e-03  0 
 1.462135e-04  -2.518709e-03  0 
 2.429633e-04  -2.518730e-03  0 
 -1.444217e-04  -2.761404e-03  0 
 -4.739460e-05  -2.761403e-03  0 
 4.962831e-05  -2.761403e-03  0 
 1.466574e-04  -2.761405e-03  0 
 2.437029e-04  -2.761414e-03  0 
VECTORS displacement_ITER6 FLOAT
 -2.407311e-04  -2.518741e-03  0 
 -2.414701e-04  -2.761426e-03  0 
 -1.439800e-04  -2.518719e-03  0 
 -4.724425e-05  -2.518693e-03  0 
 4.947814e-05  -2.518693e-03  0 
 1.462141e-04  -2.518719e-03  0 
 2.429657e-04  -2.518741e-03  0 
 -1.444238e-04  -2.761417e-03  0 
 -4.739526e-05  -2.761416e-03  0 
 4.962915e-05  -2.761416e-03  0 
 1.466580e-04  -2.761417e-03  0 
 2.437042e-04  -2.761426e-03  0 
VECTORS displacement_ITER7 FLOAT
 -2.407303e-04  -2.518739e-03  0 
 -2.414691e-04  -2.761424e-03  0 
 -1.439792e-04  -2.518717e-03  0 
 -4.724426e-05  -2.518692e-03  0 
 4.947916e-05  -2.518692e-03  0 
 1.462141e-04  -2.518717e-03  0 
 2.429653e-04  -2.518739e-03  0 
 -1.444232e-04  -2.761415e-03  0 
 -4.739451e-05  -2.761414e-03  0 
 4.962961e-05  -2.761414e-03  0 
 1.466580e-04  -2.761415e-03  0 
 2.437040e-04  -2.761424e-03  0 
VECTORS displacement_ITER8 FLOAT
 -2.407302e-04  -2.518738e-03  0 
 -2.414690e-04  -2.761422e-03  0 
 -1.439792e-04  -2.518716e-03  0 
 -4.724424e-05  -2.518690e-03  0 
 4.947908e-05  -2.518690e-03  0 
 1.462140e-04  -2.518716e-03  0 
 2.429650e-04  -2.518738e-03  0 
 -1.444231e-04  -2.761413e-03  0 
 -4.739458e-05  -2.761412e-03  0 
 4.962942e-05  -2.761412e-03  0 
 1.466579e-04  -2.761413e-03  0 
 2.437039e-04  -2.761422e-03  0 
VECTORS displacement_ITER9 FLOAT
 -2.407303e-04  -2.518738e-03  0 
 -2.414691e-04  -2.761422e-03  0 
 -1.439793e-04  -2.518716e-03  0 
 -4.724431e-05  -2.518690e-03  0 
 4.947904e-05  -2.518690e-03  0 
 1.462139e-04  -2.518716e-03  0 
 2.429650e-04  -2.518738e-03  0 
 -1.444231e-04  -2.761413e-03  0 
 -4.739467e-05  -2.761412e-03  0 
 4.962935e-05  -2.761412e-03  0 
 1.466578e-04  -2.761413e-03  0 
 2.437038e-04  -2.761422e-03  0 
VECTORS displacement_ITER10 FLOAT
 -2.407303e-04  -2.518738e-03  0 
 -2.414691e-04  -2.761422e-03  0 
 -1.439792e-04  -2.518716e-03  0 
 -4.724431e-05  -2.518690e-03  0 
 4.947902e-05  -2.518690e-03  0 
 1.462139e-04  -2.518716e-03  0 
 2.429650e-04  -2.518738e-03  0 
 -1.444231e-04  -2.761413e-03  0 
 -4.739465e-05  -2.761412e-03  0 
 4.962936e-05  -2.761412e-03  0 
 1.466578e-04  -2.761413e-03  0 
 2.437038e-04  -2.761422e-03  0 
CELL_DATA 5
TENSORS element_stresses FLOAT
 -1.274184e-04  -6.839547e-05  0 
 -6.839547e-05  -3.049463e-05  0 
 0  0  0 

 -6.305603e-05  -7.774651e-05  0 
 -7.774651e-05  -1.211376e-05  0 
 0  0  0 

 -5.458977e-10  -8.271722e-05  0 
 -8.271722e-05  -1.056849e-09  0 
 0  0  0 

 6.305598e-05  -7.774500e-05  0 
 -7.774500e-05  1.211288e-05  0 
 0  0  0 

 1.274190e-04  -6.839581e-05  0 
 -6.839581e-05  3.049561e-05  0 
 0  0  0 

TENSORS element_stresses FLOAT
 -1.274184e-04  -6.839547e-05  0 
 -6.839547e-05  -3.049463e-05  0 
 0  0  0 

 -6.305603e-05  -7.774651e-05  0 
 -7.774651e-05  -1.211376e-05  0 
 0  0  0 

 -5.458977e-10  -8.271722e-05  0 
 -8.271722e-05  -1.056849e-09  0 
 0  0  0 

 6.305598e-05  -7.774500e-05  0 
 -7.774500e-05  1.211288e-05  0 
 0  0  0 

 1.274190e-04  -6.839581e-05  0 
 -6.839581e-05  3.049561e-05  0 
 0  0  0 

