# vtk DataFile Version 3.1
this is an vtk file created by FEMAC
ASCII
DATASET UNSTRUCTURED_GRID
POINTS 12 FLOAT
6.000000 0.000000 0.000000
6.500000 0.000000 0.000000
6.000000 0.200000 0.000000
6.000000 0.400000 0.000000
6.000000 0.600000 0.000000
6.000000 0.800000 0.000000
6.000000 1.000000 0.000000
6.500000 0.200000 0.000000
6.500000 0.400000 0.000000
6.500000 0.600000 0.000000
6.500000 0.800000 0.000000
6.500000 1.000000 0.000000
CELLS 5 25 
4 0 1 7 2
4 2 7 8 3
4 3 8 9 4
4 4  9 10  5
4 5 10 11  6
CELL_TYPES 5
9 9 9 9 9 
POINT_DATA 12
VECTORS displacement_ITER1 FLOAT
 -2.376901e-04  -2.041809e-03  0 
 -2.413641e-04  -2.282675e-03  0 
 -1.426675e-04  -2.041838e-03  0 
 -4.718880e-05  -2.040961e-03  0 
 4.898302e-05  -2.041098e-03  0 
 1.444403e-04  -2.041801e-03  0 
 2.395345e-04  -2.041913e-03  0 
 -1.446611e-04  -2.282792e-03  0 
 -4.790457e-05  -2.283451e-03  0 
 4.966166e-05  -2.283524e-03  0 
 1.464753e-04  -2.283243e-03  0 
 2.434577e-04  -2.282913e-03  0 
VECTORS displacement_ITER2 FLOAT
 -2.371416e-04  -2.036592e-03  0 
 -2.407747e-04  -2.277976e-03  0 
 -1.417063e-04  -2.036512e-03  0 
 -4.631118e-05  -2.036705e-03  0 
 4.863966e-05  -2.036655e-03  0 
 1.439070e-04  -2.036542e-03  0 
 2.392719e-04  -2.036617e-03  0 
 -1.438685e-04  -2.277851e-03  0 
 -4.722304e-05  -2.277692e-03  0 
 4.943703e-05  -2.277672e-03  0 
 1.461415e-04  -2.277764e-03  0 
 2.430134e-04  -2.277983e-03  0 
VECTORS displacement_ITER3 FLOAT
 -2.367916e-04  -2.035884e-03  0 
 -2.404746e-04  -2.276671e-03  0 
 -1.416048e-04  -2.035783e-03  0 
 -4.647403e-05  -2.035690e-03  0 
 4.867785e-05  -2.035683e-03  0 
 1.438412e-04  -2.035778e-03  0 
 2.390460e-04  -2.035855e-03  0 
 -1.438523e-04  -2.276647e-03  0 
 -4.717744e-05  -2.276638e-03  0 
 4.941888e-05  -2.276636e-03  0 
 1.460614e-04  -2.276642e-03  0 
 2.426756e-04  -2.276657e-03  0 
VECTORS displacement_ITER4 FLOAT
 -2.368291e-04  -2.035991e-03  0 
 -2.405142e-04  -2.276886e-03  0 
 -1.416243e-04  -2.035911e-03  0 
 -4.645084e-05  -2.035851e-03  0 
 4.868797e-05  -2.035851e-03  0 
 1.438597e-04  -2.035917e-03  0 
 2.390561e-04  -2.036004e-03  0 
 -1.438269e-04  -2.276823e-03  0 
 -4.719717e-05  -2.276809e-03  0 
 4.943249e-05  -2.276812e-03  0 
 1.460634e-04  -2.276830e-03  0 
 2.427614e-04  -2.276897e-03  0 
VECTORS displacement_ITER5 FLOAT
 -2.368347e-04  -2.036038e-03  0 
 -2.405234e-04  -2.276925e-03  0 
 -1.416295e-04  -2.035954e-03  0 
 -4.646055e-05  -2.035886e-03  0 
 4.869513e-05  -2.035885e-03  0 
 1.438635e-04  -2.035954e-03  0 
 2.390700e-04  -2.036038e-03  0 
 -1.438377e-04  -2.276871e-03  0 
 -4.719456e-05  -2.276859e-03  0 
 4.942932e-05  -2.276860e-03  0 
 1.460718e-04  -2.276872e-03  0 
 2.427581e-04  -2.276925e-03  0 
VECTORS displacement_ITER6 FLOAT
 -2.368349e-04  -2.036049e-03  0 
 -2.405265e-04  -2.276937e-03  0 
 -1.416298e-04  -2.035962e-03  0 
 -4.645742e-05  -2.035891e-03  0 
 4.869241e-05  -2.035892e-03  0 
 1.438641e-04  -2.035961e-03  0 
 2.390708e-04  -2.036047e-03  0 
 -1.438376e-04  -2.276882e-03  0 
 -4.719568e-05  -2.276866e-03  0 
 4.943047e-05  -2.276866e-03  0 
 1.460722e-04  -2.276881e-03  0 
 2.427597e-04  -2.276935e-03  0 
VECTORS displacement_ITER7 FLOAT
 -2.368361e-04  -2.036045e-03  0 
 -2.405250e-04  -2.276935e-03  0 
 -1.416289e-04  -2.035960e-03  0 
 -4.645729e-05  -2.035891e-03  0 
 4.869208e-05  -2.035891e-03  0 
 1.438639e-04  -2.035960e-03  0 
 2.390706e-04  -2.036046e-03  0 
 -1.438371e-04  -2.276880e-03  0 
 -4.719587e-05  -2.276866e-03  0 
 4.943070e-05  -2.276865e-03  0 
 1.460720e-04  -2.276880e-03  0 
 2.427600e-04  -2.276935e-03  0 
VECTORS displacement_ITER8 FLOAT
 -2.368358e-04  -2.036045e-03  0 
 -2.405249e-04  -2.276933e-03  0 
 -1.416290e-04  -2.035959e-03  0 
 -4.645752e-05  -2.035890e-03  0 
 4.869227e-05  -2.035890e-03  0 
 1.438637e-04  -2.035959e-03  0 
 2.390705e-04  -2.036045e-03  0 
 -1.438371e-04  -2.276879e-03  0 
 -4.719577e-05  -2.276864e-03  0 
 4.943044e-05  -2.276864e-03  0 
 1.460720e-04  -2.276879e-03  0 
 2.427597e-04  -2.276933e-03  0 
VECTORS displacement_ITER9 FLOAT
 -2.368357e-04  -2.036045e-03  0 
 -2.405250e-04  -2.276933e-03  0 
 -1.416290e-04  -2.035959e-03  0 
 -4.645759e-05  -2.035890e-03  0 
 4.869228e-05  -2.035890e-03  0 
 1.438637e-04  -2.035959e-03  0 
 2.390705e-04  -2.036045e-03  0 
 -1.438372e-04  -2.276879e-03  0 
 -4.719576e-05  -2.276864e-03  0 
 4.943044e-05  -2.276864e-03  0 
 1.460719e-04  -2.276879e-03  0 
 2.427597e-04  -2.276933e-03  0 
VECTORS displacement_ITER10 FLOAT
 -2.368357e-04  -2.036045e-03  0 
 -2.405250e-04  -2.276933e-03  0 
 -1.416290e-04  -2.035959e-03  0 
 -4.645757e-05  -2.035890e-03  0 
 4.869228e-05  -2.035890e-03  0 
 1.438637e-04  -2.035959e-03  0 
 2.390704e-04  -2.036045e-03  0 
 -1.438372e-04  -2.276879e-03  0 
 -4.719575e-05  -2.276864e-03  0 
 4.943048e-05  -2.276864e-03  0 
 1.460719e-04  -2.276879e-03  0 
 2.427597e-04  -2.276933e-03  0 
CELL_DATA 5
TENSORS element_stresses FLOAT
 -6.365193e-04  -1.593751e-04  0 
 -1.593751e-04  -1.559283e-04  0 
 0  0  0 

 -3.169072e-04  -1.816566e-04  0 
 -1.816566e-04  -7.424285e-05  0 
 0  0  0 

 1.401390e-09  -1.929353e-04  0 
 -1.929353e-04  1.911440e-09  0 
 0  0  0 

 3.169078e-04  -1.816587e-04  0 
 -1.816587e-04  7.424404e-05  0 
 0  0  0 

 6.365172e-04  -1.593742e-04  0 
 -1.593742e-04  1.559265e-04  0 
 0  0  0 

TENSORS element_stresses FLOAT
 -6.365193e-04  -1.593751e-04  0 
 -1.593751e-04  -1.559283e-04  0 
 0  0  0 

 -3.169072e-04  -1.816566e-04  0 
 -1.816566e-04  -7.424285e-05  0 
 0  0  0 

 1.401390e-09  -1.929353e-04  0 
 -1.929353e-04  1.911440e-09  0 
 0  0  0 

 3.169078e-04  -1.816587e-04  0 
 -1.816587e-04  7.424404e-05  0 
 0  0  0 

 6.365172e-04  -1.593742e-04  0 
 -1.593742e-04  1.559265e-04  0 
 0  0  0 

