# vtk DataFile Version 3.1
this is an vtk file created by FEMAC
ASCII
DATASET UNSTRUCTURED_GRID
POINTS 12 FLOAT
0.500000 0.000000 0.000000
1.000000 0.000000 0.000000
0.500000 0.200000 0.000000
0.500000 0.400000 0.000000
0.500000 0.600000 0.000000
0.500000 0.800000 0.000000
0.500000 1.000000 0.000000
1.000000 0.200000 0.000000
1.000000 0.400000 0.000000
1.000000 0.600000 0.000000
1.000000 0.800000 0.000000
1.000000 1.000000 0.000000
CELLS 5 25 
4 0 1 7 2
4 2 7 8 3
4 3 8 9 4
4 4  9 10  5
4 5 10 11  6
CELL_TYPES 5
9 9 9 9 9 
POINT_DATA 12
VECTORS displacement_ITER1 FLOAT
 -7.182687e-05  -4.366357e-05  0 
 -7.850885e-05  -1.206160e-04  0 
 -4.232585e-05  -4.253777e-05  0 
 -1.308970e-05  -4.217222e-05  0 
 1.574749e-05  -4.243162e-05  0 
 4.455388e-05  -4.319477e-05  0 
 7.322750e-05  -4.426457e-05  0 
 -4.644482e-05  -1.195596e-04  0 
 -1.469284e-05  -1.188573e-04  0 
 1.713355e-05  -1.186872e-04  0 
 4.870563e-05  -1.191576e-04  0 
 8.048183e-05  -1.202867e-04  0 
VECTORS displacement_ITER2 FLOAT
 -7.181090e-05  -4.371393e-05  0 
 -7.851020e-05  -1.207029e-04  0 
 -4.227670e-05  -4.258449e-05  0 
 -1.310975e-05  -4.222300e-05  0 
 1.577816e-05  -4.247925e-05  0 
 4.457783e-05  -4.322845e-05  0 
 7.323972e-05  -4.430393e-05  0 
 -4.647160e-05  -1.196154e-04  0 
 -1.459896e-05  -1.189026e-04  0 
 1.713280e-05  -1.187346e-04  0 
 4.870449e-05  -1.191787e-04  0 
 8.047679e-05  -1.202891e-04  0 
VECTORS displacement_ITER3 FLOAT
 -7.180560e-05  -4.372842e-05  0 
 -7.850967e-05  -1.207233e-04  0 
 -4.226438e-05  -4.259659e-05  0 
 -1.311420e-05  -4.223629e-05  0 
 1.578711e-05  -4.249163e-05  0 
 4.458619e-05  -4.323658e-05  0 
 7.324227e-05  -4.431378e-05  0 
 -4.647691e-05  -1.196312e-04  0 
 -1.457276e-05  -1.189147e-04  0 
 1.713194e-05  -1.187472e-04  0 
 4.870271e-05  -1.191860e-04  0 
 8.048079e-05  -1.202913e-04  0 
VECTORS displacement_ITER4 FLOAT
 -7.180343e-05  -4.372915e-05  0 
 -7.850849e-05  -1.207225e-04  0 
 -4.226329e-05  -4.259653e-05  0 
 -1.311582e-05  -4.223504e-05  0 
 1.579025e-05  -4.249053e-05  0 
 4.458571e-05  -4.323603e-05  0 
 7.323961e-05  -4.431399e-05  0 
 -4.647609e-05  -1.196306e-04  0 
 -1.456971e-05  -1.189127e-04  0 
 1.712855e-05  -1.187437e-04  0 
 4.870273e-05  -1.191851e-04  0 
 8.048327e-05  -1.202921e-04  0 
VECTORS displacement_ITER5 FLOAT
 -7.180357e-05  -4.372961e-05  0 
 -7.850871e-05  -1.207231e-04  0 
 -4.226337e-05  -4.259707e-05  0 
 -1.311662e-05  -4.223545e-05  0 
 1.579119e-05  -4.249101e-05  0 
 4.458540e-05  -4.323655e-05  0 
 7.323943e-05  -4.431463e-05  0 
 -4.647632e-05  -1.196312e-04  0 
 -1.456886e-05  -1.189135e-04  0 
 1.712707e-05  -1.187442e-04  0 
 4.870323e-05  -1.191857e-04  0 
 8.048362e-05  -1.202929e-04  0 
VECTORS displacement_ITER6 FLOAT
 -7.180363e-05  -4.372975e-05  0 
 -7.850867e-05  -1.207233e-04  0 
 -4.226326e-05  -4.259723e-05  0 
 -1.311683e-05  -4.223563e-05  0 
 1.579136e-05  -4.249115e-05  0 
 4.458537e-05  -4.323663e-05  0 
 7.323955e-05  -4.431478e-05  0 
 -4.647651e-05  -1.196313e-04  0 
 -1.456851e-05  -1.189138e-04  0 
 1.712672e-05  -1.187444e-04  0 
 4.870345e-05  -1.191858e-04  0 
 8.048356e-05  -1.202929e-04  0 
VECTORS displacement_ITER7 FLOAT
 -7.180369e-05  -4.372959e-05  0 
 -7.850865e-05  -1.207232e-04  0 
 -4.226328e-05  -4.259711e-05  0 
 -1.311686e-05  -4.223551e-05  0 
 1.579134e-05  -4.249107e-05  0 
 4.458526e-05  -4.323653e-05  0 
 7.323958e-05  -4.431467e-05  0 
 -4.647658e-05  -1.196311e-04  0 
 -1.456852e-05  -1.189136e-04  0 
 1.712665e-05  -1.187443e-04  0 
 4.870349e-05  -1.191857e-04  0 
 8.048344e-05  -1.202928e-04  0 
VECTORS displacement_ITER8 FLOAT
 -7.180371e-05  -4.372957e-05  0 
 -7.850864e-05  -1.207232e-04  0 
 -4.226328e-05  -4.259709e-05  0 
 -1.311686e-05  -4.223550e-05  0 
 1.579134e-05  -4.249105e-05  0 
 4.458525e-05  -4.323652e-05  0 
 7.323959e-05  -4.431466e-05  0 
 -4.647659e-05  -1.196311e-04  0 
 -1.456853e-05  -1.189136e-04  0 
 1.712664e-05  -1.187443e-04  0 
 4.870350e-05  -1.191857e-04  0 
 8.048343e-05  -1.202928e-04  0 
VECTORS displacement_ITER9 FLOAT
 -7.180370e-05  -4.372957e-05  0 
 -7.850864e-05  -1.207231e-04  0 
 -4.226328e-05  -4.259709e-05  0 
 -1.311686e-05  -4.223550e-05  0 
 1.579133e-05  -4.249105e-05  0 
 4.458525e-05  -4.323652e-05  0 
 7.323959e-05  -4.431466e-05  0 
 -4.647659e-05  -1.196311e-04  0 
 -1.456854e-05  -1.189136e-04  0 
 1.712665e-05  -1.187443e-04  0 
 4.870350e-05  -1.191857e-04  0 
 8.048343e-05  -1.202928e-04  0 
VECTORS displacement_ITER10 FLOAT
 -7.180370e-05  -4.372957e-05  0 
 -7.850864e-05  -1.207231e-04  0 
 -4.226328e-05  -4.259709e-05  0 
 -1.311686e-05  -4.223550e-05  0 
 1.579133e-05  -4.249105e-05  0 
 4.458525e-05  -4.323652e-05  0 
 7.323959e-05  -4.431466e-05  0 
 -4.647659e-05  -1.196311e-04  0 
 -1.456854e-05  -1.189136e-04  0 
 1.712665e-05  -1.187443e-04  0 
 4.870350e-05  -1.191857e-04  0 
 8.048343e-05  -1.202928e-04  0 
CELL_DATA 5
TENSORS element_stresses FLOAT
 -1.016469e-02  -7.417962e-05  0 
 -7.417962e-05  2.511870e-03  0 
 0  0  0 

 -5.335886e-03  -8.276402e-04  0 
 -8.276402e-04  1.097008e-03  0 
 0  0  0 

 -1.989747e-04  -1.094555e-03  0 
 -1.094555e-03  -2.753599e-04  0 
 0  0  0 

 5.014737e-03  -9.811972e-04  0 
 -9.811972e-04  -1.462750e-03  0 
 0  0  0 

 1.068481e-02  -6.474278e-04  0 
 -6.474278e-04  -2.257600e-03  0 
 0  0  0 

TENSORS element_stresses FLOAT
 -1.016469e-02  -7.417962e-05  0 
 -7.417962e-05  2.511870e-03  0 
 0  0  0 

 -5.335886e-03  -8.276402e-04  0 
 -8.276402e-04  1.097008e-03  0 
 0  0  0 

 -1.989747e-04  -1.094555e-03  0 
 -1.094555e-03  -2.753599e-04  0 
 0  0  0 

 5.014737e-03  -9.811972e-04  0 
 -9.811972e-04  -1.462750e-03  0 
 0  0  0 

 1.068481e-02  -6.474278e-04  0 
 -6.474278e-04  -2.257600e-03  0 
 0  0  0 

