# vtk DataFile Version 3.1
this is an vtk file created by FEMAC
ASCII
DATASET UNSTRUCTURED_GRID
POINTS 12 FLOAT
5.500000 0.000000 0.000000
6.000000 0.000000 0.000000
5.500000 0.200000 0.000000
5.500000 0.400000 0.000000
5.500000 0.600000 0.000000
5.500000 0.800000 0.000000
5.500000 1.000000 0.000000
6.000000 0.200000 0.000000
6.000000 0.400000 0.000000
6.000000 0.600000 0.000000
6.000000 0.800000 0.000000
6.000000 1.000000 0.000000
CELLS 5 25 
4 0 1 7 2
4 2 7 8 3
4 3 8 9 4
4 4  9 10  5
4 5 10 11  6
CELL_TYPES 5
9 9 9 9 9 
POINT_DATA 12
VECTORS displacement_ITER1 FLOAT
 -2.372512e-04  -1.803040e-03  0 
 -2.379562e-04  -2.041650e-03  0 
 -1.419680e-04  -1.802869e-03  0 
 -4.667091e-05  -1.802855e-03  0 
 4.846720e-05  -1.802845e-03  0 
 1.437751e-04  -1.802886e-03  0 
 2.390691e-04  -1.803024e-03  0 
 -1.423539e-04  -2.041556e-03  0 
 -4.683929e-05  -2.041507e-03  0 
 4.863596e-05  -2.041503e-03  0 
 1.441622e-04  -2.041549e-03  0 
 2.397627e-04  -2.041655e-03  0 
VECTORS displacement_ITER2 FLOAT
 -2.363757e-04  -1.798760e-03  0 
 -2.370304e-04  -2.036683e-03  0 
 -1.413317e-04  -1.798621e-03  0 
 -4.636080e-05  -1.798568e-03  0 
 4.858608e-05  -1.798575e-03  0 
 1.435461e-04  -1.798622e-03  0 
 2.385861e-04  -1.798762e-03  0 
 -1.417530e-04  -2.036603e-03  0 
 -4.651563e-05  -2.036523e-03  0 
 4.872845e-05  -2.036525e-03  0 
 1.439736e-04  -2.036605e-03  0 
 2.392564e-04  -2.036685e-03  0 
VECTORS displacement_ITER3 FLOAT
 -2.361377e-04  -1.798164e-03  0 
 -2.368037e-04  -2.035859e-03  0 
 -1.411837e-04  -1.798021e-03  0 
 -4.630814e-05  -1.797972e-03  0 
 4.853926e-05  -1.797973e-03  0 
 1.434155e-04  -1.798021e-03  0 
 2.383695e-04  -1.798166e-03  0 
 -1.416103e-04  -2.035772e-03  0 
 -4.645152e-05  -2.035705e-03  0 
 4.868526e-05  -2.035705e-03  0 
 1.438414e-04  -2.035772e-03  0 
 2.390336e-04  -2.035860e-03  0 
VECTORS displacement_ITER4 FLOAT
 -2.361602e-04  -1.798284e-03  0 
 -2.368262e-04  -2.036001e-03  0 
 -1.411979e-04  -1.798139e-03  0 
 -4.631330e-05  -1.798090e-03  0 
 4.854649e-05  -1.798091e-03  0 
 1.434314e-04  -1.798139e-03  0 
 2.383936e-04  -1.798284e-03  0 
 -1.416237e-04  -2.035916e-03  0 
 -4.645634e-05  -2.035846e-03  0 
 4.868938e-05  -2.035846e-03  0 
 1.438568e-04  -2.035915e-03  0 
 2.390597e-04  -2.036000e-03  0 
VECTORS displacement_ITER5 FLOAT
 -2.361698e-04  -1.798311e-03  0 
 -2.368359e-04  -2.036039e-03  0 
 -1.412036e-04  -1.798167e-03  0 
 -4.631417e-05  -1.798119e-03  0 
 4.854866e-05  -1.798119e-03  0 
 1.434383e-04  -1.798167e-03  0 
 2.384045e-04  -1.798311e-03  0 
 -1.416289e-04  -2.035954e-03  0 
 -4.645739e-05  -2.035884e-03  0 
 4.869195e-05  -2.035885e-03  0 
 1.438636e-04  -2.035954e-03  0 
 2.390705e-04  -2.036039e-03  0 
VECTORS displacement_ITER6 FLOAT
 -2.361701e-04  -1.798319e-03  0 
 -2.368357e-04  -2.036047e-03  0 
 -1.412034e-04  -1.798175e-03  0 
 -4.631390e-05  -1.798126e-03  0 
 4.854894e-05  -1.798126e-03  0 
 1.434384e-04  -1.798175e-03  0 
 2.384051e-04  -1.798319e-03  0 
 -1.416288e-04  -2.035961e-03  0 
 -4.645745e-05  -2.035892e-03  0 
 4.869247e-05  -2.035892e-03  0 
 1.438639e-04  -2.035961e-03  0 
 2.390707e-04  -2.036047e-03  0 
VECTORS displacement_ITER7 FLOAT
 -2.361703e-04  -1.798318e-03  0 
 -2.368358e-04  -2.036046e-03  0 
 -1.412036e-04  -1.798173e-03  0 
 -4.631402e-05  -1.798125e-03  0 
 4.854882e-05  -1.798125e-03  0 
 1.434384e-04  -1.798173e-03  0 
 2.384050e-04  -1.798318e-03  0 
 -1.416291e-04  -2.035960e-03  0 
 -4.645760e-05  -2.035891e-03  0 
 4.869239e-05  -2.035891e-03  0 
 1.438639e-04  -2.035960e-03  0 
 2.390707e-04  -2.036046e-03  0 
VECTORS displacement_ITER8 FLOAT
 -2.361701e-04  -1.798317e-03  0 
 -2.368357e-04  -2.036045e-03  0 
 -1.412035e-04  -1.798173e-03  0 
 -4.631405e-05  -1.798124e-03  0 
 4.854878e-05  -1.798124e-03  0 
 1.434383e-04  -1.798173e-03  0 
 2.384049e-04  -1.798317e-03  0 
 -1.416290e-04  -2.035959e-03  0 
 -4.645757e-05  -2.035890e-03  0 
 4.869230e-05  -2.035890e-03  0 
 1.438637e-04  -2.035959e-03  0 
 2.390705e-04  -2.036045e-03  0 
VECTORS displacement_ITER9 FLOAT
 -2.361701e-04  -1.798317e-03  0 
 -2.368357e-04  -2.036045e-03  0 
 -1.412035e-04  -1.798173e-03  0 
 -4.631406e-05  -1.798124e-03  0 
 4.854877e-05  -1.798124e-03  0 
 1.434382e-04  -1.798173e-03  0 
 2.384048e-04  -1.798317e-03  0 
 -1.416290e-04  -2.035959e-03  0 
 -4.645758e-05  -2.035890e-03  0 
 4.869228e-05  -2.035890e-03  0 
 1.438637e-04  -2.035959e-03  0 
 2.390704e-04  -2.036045e-03  0 
VECTORS displacement_ITER10 FLOAT
 -2.361701e-04  -1.798317e-03  0 
 -2.368357e-04  -2.036045e-03  0 
 -1.412035e-04  -1.798173e-03  0 
 -4.631405e-05  -1.798124e-03  0 
 4.854877e-05  -1.798124e-03  0 
 1.434382e-04  -1.798173e-03  0 
 2.384048e-04  -1.798317e-03  0 
 -1.416290e-04  -2.035959e-03  0 
 -4.645757e-05  -2.035890e-03  0 
 4.869229e-05  -2.035890e-03  0 
 1.438637e-04  -2.035959e-03  0 
 2.390704e-04  -2.036045e-03  0 
CELL_DATA 5
TENSORS element_stresses FLOAT
 -1.009660e-03  -6.234810e-05  0 
 -6.234810e-05  2.714482e-04  0 
 0  0  0 

 -5.285582e-04  -3.078137e-04  0 
 -3.078137e-04  1.348057e-04  0 
 0  0  0 

 -1.586731e-12  -3.846771e-04  0 
 -3.846771e-04  -1.437675e-09  0 
 0  0  0 

 5.285593e-04  -3.078137e-04  0 
 -3.078137e-04  -1.348055e-04  0 
 0  0  0 

 1.009659e-03  -6.234736e-05  0 
 -6.234736e-05  -2.714453e-04  0 
 0  0  0 

TENSORS element_stresses FLOAT
 -1.009660e-03  -6.234810e-05  0 
 -6.234810e-05  2.714482e-04  0 
 0  0  0 

 -5.285582e-04  -3.078137e-04  0 
 -3.078137e-04  1.348057e-04  0 
 0  0  0 

 -1.586731e-12  -3.846771e-04  0 
 -3.846771e-04  -1.437675e-09  0 
 0  0  0 

 5.285593e-04  -3.078137e-04  0 
 -3.078137e-04  -1.348055e-04  0 
 0  0  0 

 1.009659e-03  -6.234736e-05  0 
 -6.234736e-05  -2.714453e-04  0 
 0  0  0 

