# vtk DataFile Version 3.1
this is an vtk file created by FEMAC
ASCII
DATASET UNSTRUCTURED_GRID
POINTS 12 FLOAT
4.000000 0.000000 0.000000
4.500000 0.000000 0.000000
4.000000 0.200000 0.000000
4.000000 0.400000 0.000000
4.000000 0.600000 0.000000
4.000000 0.800000 0.000000
4.000000 1.000000 0.000000
4.500000 0.200000 0.000000
4.500000 0.400000 0.000000
4.500000 0.600000 0.000000
4.500000 0.800000 0.000000
4.500000 1.000000 0.000000
CELLS 5 25 
4 0 1 7 2
4 2 7 8 3
4 3 8 9 4
4 4  9 10  5
4 5 10 11  6
CELL_TYPES 5
9 9 9 9 9 
POINT_DATA 12
VECTORS displacement_ITER1 FLOAT
 -2.098508e-04  -1.117096e-03  0 
 -2.270360e-04  -1.338884e-03  0 
 -1.259543e-04  -1.116792e-03  0 
 -4.141621e-05  -1.116549e-03  0 
 4.316852e-05  -1.116657e-03  0 
 1.278283e-04  -1.116881e-03  0 
 2.116938e-04  -1.117231e-03  0 
 -1.354567e-04  -1.338693e-03  0 
 -4.469547e-05  -1.338400e-03  0 
 4.648422e-05  -1.338520e-03  0 
 1.374110e-04  -1.338461e-03  0 
 2.288639e-04  -1.339041e-03  0 
VECTORS displacement_ITER2 FLOAT
 -2.091905e-04  -1.115202e-03  0 
 -2.259291e-04  -1.336220e-03  0 
 -1.251363e-04  -1.114907e-03  0 
 -4.098584e-05  -1.114717e-03  0 
 4.318245e-05  -1.114681e-03  0 
 1.273099e-04  -1.114853e-03  0 
 2.113930e-04  -1.115223e-03  0 
 -1.350470e-04  -1.335956e-03  0 
 -4.422161e-05  -1.335865e-03  0 
 4.640787e-05  -1.335864e-03  0 
 1.372635e-04  -1.335922e-03  0 
 2.281250e-04  -1.336277e-03  0 
VECTORS displacement_ITER3 FLOAT
 -2.090792e-04  -1.115096e-03  0 
 -2.257553e-04  -1.335970e-03  0 
 -1.249620e-04  -1.114770e-03  0 
 -4.090184e-05  -1.114514e-03  0 
 4.312776e-05  -1.114505e-03  0 
 1.272034e-04  -1.114749e-03  0 
 2.113275e-04  -1.115086e-03  0 
 -1.349581e-04  -1.335698e-03  0 
 -4.419810e-05  -1.335561e-03  0 
 4.645502e-05  -1.335572e-03  0 
 1.371745e-04  -1.335698e-03  0 
 2.279852e-04  -1.335970e-03  0 
VECTORS displacement_ITER4 FLOAT
 -2.091059e-04  -1.115147e-03  0 
 -2.257796e-04  -1.336045e-03  0 
 -1.249709e-04  -1.114799e-03  0 
 -4.089708e-05  -1.114578e-03  0 
 4.312410e-05  -1.114584e-03  0 
 1.272083e-04  -1.114812e-03  0 
 2.113404e-04  -1.115152e-03  0 
 -1.349437e-04  -1.335768e-03  0 
 -4.422448e-05  -1.335657e-03  0 
 4.646313e-05  -1.335662e-03  0 
 1.371759e-04  -1.335770e-03  0 
 2.280088e-04  -1.336051e-03  0 
VECTORS displacement_ITER5 FLOAT
 -2.091148e-04  -1.115158e-03  0 
 -2.257802e-04  -1.336062e-03  0 
 -1.249725e-04  -1.114814e-03  0 
 -4.090111e-05  -1.114594e-03  0 
 4.313610e-05  -1.114597e-03  0 
 1.272081e-04  -1.114816e-03  0 
 2.113496e-04  -1.115160e-03  0 
 -1.349475e-04  -1.335783e-03  0 
 -4.422367e-05  -1.335682e-03  0 
 4.645799e-05  -1.335681e-03  0 
 1.371838e-04  -1.335785e-03  0 
 2.280148e-04  -1.336060e-03  0 
VECTORS displacement_ITER6 FLOAT
 -2.091143e-04  -1.115163e-03  0 
 -2.257820e-04  -1.336067e-03  0 
 -1.249753e-04  -1.114819e-03  0 
 -4.089959e-05  -1.114598e-03  0 
 4.313444e-05  -1.114598e-03  0 
 1.272102e-04  -1.114819e-03  0 
 2.113491e-04  -1.115163e-03  0 
 -1.349476e-04  -1.335789e-03  0 
 -4.422635e-05  -1.335685e-03  0 
 4.646021e-05  -1.335685e-03  0 
 1.371832e-04  -1.335788e-03  0 
 2.280176e-04  -1.336067e-03  0 
VECTORS displacement_ITER7 FLOAT
 -2.091139e-04  -1.115162e-03  0 
 -2.257823e-04  -1.336066e-03  0 
 -1.249751e-04  -1.114819e-03  0 
 -4.090033e-05  -1.114597e-03  0 
 4.313488e-05  -1.114597e-03  0 
 1.272097e-04  -1.114818e-03  0 
 2.113487e-04  -1.115163e-03  0 
 -1.349482e-04  -1.335788e-03  0 
 -4.422475e-05  -1.335684e-03  0 
 4.645935e-05  -1.335684e-03  0 
 1.371828e-04  -1.335788e-03  0 
 2.280171e-04  -1.336066e-03  0 
VECTORS displacement_ITER8 FLOAT
 -2.091138e-04  -1.115162e-03  0 
 -2.257823e-04  -1.336065e-03  0 
 -1.249751e-04  -1.114818e-03  0 
 -4.090016e-05  -1.114597e-03  0 
 4.313477e-05  -1.114597e-03  0 
 1.272098e-04  -1.114818e-03  0 
 2.113487e-04  -1.115162e-03  0 
 -1.349480e-04  -1.335788e-03  0 
 -4.422481e-05  -1.335683e-03  0 
 4.645966e-05  -1.335683e-03  0 
 1.371827e-04  -1.335788e-03  0 
 2.280170e-04  -1.336065e-03  0 
VECTORS displacement_ITER9 FLOAT
 -2.091138e-04  -1.115162e-03  0 
 -2.257823e-04  -1.336065e-03  0 
 -1.249751e-04  -1.114818e-03  0 
 -4.090015e-05  -1.114597e-03  0 
 4.313470e-05  -1.114597e-03  0 
 1.272098e-04  -1.114818e-03  0 
 2.113487e-04  -1.115162e-03  0 
 -1.349480e-04  -1.335788e-03  0 
 -4.422488e-05  -1.335683e-03  0 
 4.645962e-05  -1.335683e-03  0 
 1.371827e-04  -1.335788e-03  0 
 2.280170e-04  -1.336065e-03  0 
VECTORS displacement_ITER10 FLOAT
 -2.091138e-04  -1.115162e-03  0 
 -2.257823e-04  -1.336065e-03  0 
 -1.249751e-04  -1.114818e-03  0 
 -4.090016e-05  -1.114597e-03  0 
 4.313471e-05  -1.114597e-03  0 
 1.272098e-04  -1.114818e-03  0 
 2.113487e-04  -1.115162e-03  0 
 -1.349480e-04  -1.335787e-03  0 
 -4.422489e-05  -1.335683e-03  0 
 4.645962e-05  -1.335683e-03  0 
 1.371827e-04  -1.335787e-03  0 
 2.280170e-04  -1.336065e-03  0 
CELL_DATA 5
TENSORS element_stresses FLOAT
 -2.876417e-03  -3.415509e-04  0 
 -3.415509e-04  -7.075799e-04  0 
 0  0  0 

 -1.434418e-03  -3.892906e-04  0 
 -3.892906e-04  -3.488403e-04  0 
 0  0  0 

 1.268266e-08  -4.134172e-04  0 
 -4.134172e-04  -1.937644e-08  0 
 0  0  0 

 1.434430e-03  -3.892471e-04  0 
 -3.892471e-04  3.488137e-04  0 
 0  0  0 

 2.876393e-03  -3.414943e-04  0 
 -3.414943e-04  7.075615e-04  0 
 0  0  0 

TENSORS element_stresses FLOAT
 -2.876417e-03  -3.415509e-04  0 
 -3.415509e-04  -7.075799e-04  0 
 0  0  0 

 -1.434418e-03  -3.892906e-04  0 
 -3.892906e-04  -3.488403e-04  0 
 0  0  0 

 1.268266e-08  -4.134172e-04  0 
 -4.134172e-04  -1.937644e-08  0 
 0  0  0 

 1.434430e-03  -3.892471e-04  0 
 -3.892471e-04  3.488137e-04  0 
 0  0  0 

 2.876393e-03  -3.414943e-04  0 
 -3.414943e-04  7.075615e-04  0 
 0  0  0 

