# vtk DataFile Version 3.1
this is an vtk file created by FEMAC
ASCII
DATASET UNSTRUCTURED_GRID
POINTS 12 FLOAT
1.500000 0.000000 0.000000
2.000000 0.000000 0.000000
1.500000 0.200000 0.000000
1.500000 0.400000 0.000000
1.500000 0.600000 0.000000
1.500000 0.800000 0.000000
1.500000 1.000000 0.000000
2.000000 0.200000 0.000000
2.000000 0.400000 0.000000
2.000000 0.600000 0.000000
2.000000 0.800000 0.000000
2.000000 1.000000 0.000000
CELLS 5 25 
4 0 1 7 2
4 2 7 8 3
4 3 8 9 4
4 4  9 10  5
4 5 10 11  6
CELL_TYPES 5
9 9 9 9 9 
POINT_DATA 12
VECTORS displacement_ITER1 FLOAT
 -2.051883e-03  -3.453974e-03  0 
 -3.227071e-03  -5.900209e-03  0 
 -1.438146e-03  -3.315158e-03  0 
 -4.607578e-04  -3.288080e-03  0 
 5.029888e-04  -3.288080e-03  0 
 1.480377e-03  -3.315158e-03  0 
 2.094114e-03  -3.453974e-03  0 
 -1.814730e-03  -6.018610e-03  0 
 -6.415336e-04  -6.041549e-03  0 
 6.837645e-04  -6.041549e-03  0 
 1.856961e-03  -6.018610e-03  0 
 3.269302e-03  -5.900209e-03  0 
VECTORS displacement_ITER2 FLOAT
 -2.082705e-03  -3.448324e-03  0 
 -3.149153e-03  -6.093905e-03  0 
 -1.380966e-03  -3.436209e-03  0 
 -4.292613e-04  -3.423868e-03  0 
 4.498141e-04  -3.406245e-03  0 
 1.414101e-03  -3.412412e-03  0 
 2.167955e-03  -3.405723e-03  0 
 -1.774259e-03  -6.091745e-03  0 
 -6.194885e-04  -6.101277e-03  0 
 6.404550e-04  -6.114205e-03  0 
 1.810228e-03  -6.108429e-03  0 
 3.198676e-03  -6.124751e-03  0 
VECTORS displacement_ITER3 FLOAT
 -2.122792e-03  -3.418510e-03  0 
 -3.157153e-03  -6.131789e-03  0 
 -1.378112e-03  -3.436352e-03  0 
 -4.152492e-04  -3.427505e-03  0 
 4.498057e-04  -3.443035e-03  0 
 1.402906e-03  -3.451963e-03  0 
 2.127803e-03  -3.448403e-03  0 
 -1.774294e-03  -6.116830e-03  0 
 -6.126412e-04  -6.124792e-03  0 
 6.462190e-04  -6.117958e-03  0 
 1.799035e-03  -6.109823e-03  0 
 3.173514e-03  -6.119454e-03  0 
VECTORS displacement_ITER4 FLOAT
 -2.114670e-03  -3.443727e-03  0 
 -3.153689e-03  -6.119056e-03  0 
 -1.378721e-03  -3.443199e-03  0 
 -4.176068e-04  -3.435776e-03  0 
 4.404947e-04  -3.433936e-03  0 
 1.401363e-03  -3.441254e-03  0 
 2.138848e-03  -3.442218e-03  0 
 -1.774796e-03  -6.116644e-03  0 
 -6.180864e-04  -6.123343e-03  0 
 6.402825e-04  -6.123857e-03  0 
 1.798127e-03  -6.117179e-03  0 
 3.177904e-03  -6.118776e-03  0 
VECTORS displacement_ITER5 FLOAT
 -2.114476e-03  -3.441530e-03  0 
 -3.155635e-03  -6.117216e-03  0 
 -1.379349e-03  -3.441471e-03  0 
 -4.182799e-04  -3.434103e-03  0 
 4.411910e-04  -3.434478e-03  0 
 1.401111e-03  -3.441532e-03  0 
 2.138506e-03  -3.441953e-03  0 
 -1.775204e-03  -6.115774e-03  0 
 -6.183762e-04  -6.122132e-03  0 
 6.406929e-04  -6.121947e-03  0 
 1.797723e-03  -6.115549e-03  0 
 3.177888e-03  -6.117081e-03  0 
VECTORS displacement_ITER6 FLOAT
 -2.114438e-03  -3.441065e-03  0 
 -3.155905e-03  -6.116922e-03  0 
 -1.379571e-03  -3.441677e-03  0 
 -4.188098e-04  -3.434341e-03  0 
 4.408234e-04  -3.433834e-03  0 
 1.400936e-03  -3.441004e-03  0 
 2.138490e-03  -3.440919e-03  0 
 -1.775425e-03  -6.115403e-03  0 
 -6.187665e-04  -6.121789e-03  0 
 6.402578e-04  -6.121816e-03  0 
 1.797505e-03  -6.115480e-03  0 
 3.177837e-03  -6.116831e-03  0 
VECTORS displacement_ITER7 FLOAT
 -2.114546e-03  -3.441179e-03  0 
 -3.155778e-03  -6.116882e-03  0 
 -1.379459e-03  -3.441681e-03  0 
 -4.187292e-04  -3.434351e-03  0 
 4.409246e-04  -3.433810e-03  0 
 1.401053e-03  -3.440984e-03  0 
 2.138381e-03  -3.440793e-03  0 
 -1.775361e-03  -6.115458e-03  0 
 -6.186570e-04  -6.121836e-03  0 
 6.403856e-04  -6.121724e-03  0 
 1.797571e-03  -6.115380e-03  0 
 3.177972e-03  -6.116838e-03  0 
VECTORS displacement_ITER8 FLOAT
 -2.114545e-03  -3.441175e-03  0 
 -3.155819e-03  -6.116867e-03  0 
 -1.379461e-03  -3.441672e-03  0 
 -4.187316e-04  -3.434351e-03  0 
 4.409172e-04  -3.433807e-03  0 
 1.401051e-03  -3.440989e-03  0 
 2.138383e-03  -3.440804e-03  0 
 -1.775363e-03  -6.115458e-03  0 
 -6.186556e-04  -6.121827e-03  0 
 6.403817e-04  -6.121740e-03  0 
 1.797570e-03  -6.115387e-03  0 
 3.177930e-03  -6.116853e-03  0 
VECTORS displacement_ITER9 FLOAT
 -2.114545e-03  -3.441175e-03  0 
 -3.155819e-03  -6.116867e-03  0 
 -1.379461e-03  -3.441672e-03  0 
 -4.187316e-04  -3.434351e-03  0 
 4.409172e-04  -3.433807e-03  0 
 1.401051e-03  -3.440989e-03  0 
 2.138383e-03  -3.440804e-03  0 
 -1.775363e-03  -6.115458e-03  0 
 -6.186556e-04  -6.121827e-03  0 
 6.403817e-04  -6.121740e-03  0 
 1.797570e-03  -6.115387e-03  0 
 3.177930e-03  -6.116853e-03  0 
VECTORS displacement_ITER10 FLOAT
 9.071806e-02  3.981862e-01  0 
 1.290487e-01  5.049372e-01  0 
 6.108344e-02  3.516089e-01  0 
 1.777234e-03  3.440478e-01  0 
 -9.031368e-02  3.012393e-01  0 
 -1.787852e-01  2.978460e-01  0 
 -2.883953e-01  2.956706e-01  0 
 4.940420e-02  5.291252e-01  0 
 -2.940176e-02  5.358161e-01  0 
 -1.157949e-01  5.637755e-01  0 
 -2.277317e-01  5.630042e-01  0 
 -3.526119e-01  5.758831e-01  0 
VECTORS displacement_ITER11 FLOAT
 5.244122e+13  -9.771261e+13  0 
 7.596450e+13  6.796290e+13  0 
 -8.815391e+11  -4.643144e+13  0 
 -3.109782e+13  -3.933704e+13  0 
 -2.345092e+13  3.315443e+13  0 
 1.387423e+13  3.381154e+13  0 
 5.951515e+13  4.727277e+13  0 
 -3.766994e+12  3.000281e+13  0 
 -3.246227e+13  2.354644e+13  0 
 -2.461975e+13  -6.323199e+13  0 
 1.420034e+13  -6.685800e+13  0 
 7.816703e+13  -1.103230e+14  0 
VECTORS displacement_ITER12 FLOAT
 -2.258540e+28  1.197777e+28  0 
 7.893011e+27  -1.733511e+28  0 
 1.992866e+27  -1.350391e+28  0 
 5.139478e+27  -1.448297e+28  0 
 5.421622e+27  -4.038428e+28  0 
 -8.022548e+26  -4.211065e+28  0 
 -1.334630e+28  -4.127120e+28  0 
 7.607645e+27  -2.211576e+28  0 
 1.173381e+28  -2.239286e+28  0 
 3.428055e+27  -2.266971e+28  0 
 -1.139749e+27  -2.179958e+28  0 
 -5.494844e+27  -1.211996e+28  0 
VECTORS displacement_ITER13 FLOAT
 -1.567543e+43  -4.574943e+42  0 
 2.475761e+43  -1.249327e+43  0 
 4.524460e+42  -5.380921e+42  0 
 9.000131e+42  -5.253329e+42  0 
 3.369894e+42  -1.014583e+43  0 
 3.497054e+42  -1.288561e+43  0 
 -3.457842e+42  -1.345882e+43  0 
 7.718814e+42  -7.530184e+42  0 
 7.346370e+42  -7.847599e+42  0 
 8.324254e+42  -5.244656e+42  0 
 3.650025e+42  -5.738822e+42  0 
 -2.229920e+42  -9.214120e+42  0 
VECTORS displacement_ITER14 FLOAT
 1.697112e+58  -4.411658e+58  0 
 2.136049e+58  3.776828e+58  0 
 -8.304650e+55  -3.510000e+58  0 
 -1.098787e+58  -3.140319e+58  0 
 -8.684569e+57  -1.035283e+58  0 
 3.275872e+55  -3.315736e+57  0 
 4.447977e+58  2.503168e+58  0 
 3.855871e+57  -3.571196e+56  0 
 -1.056676e+58  -5.915067e+57  0 
 -1.760884e+57  -2.589601e+58  0 
 6.519675e+57  -3.040169e+58  0 
 2.972441e+58  -5.103775e+58  0 
VECTORS displacement_ITER15 FLOAT
 1.464868e+73  -1.787895e+74  0 
 4.172065e+73  -1.972338e+72  0 
 1.037151e+73  -1.537395e+74  0 
 -2.154839e+72  -1.562377e+74  0 
 -1.841786e+73  -1.516300e+74  0 
 1.811870e+72  -1.342751e+74  0 
 8.803318e+73  -5.906305e+73  0 
 2.499093e+73  -1.003898e+74  0 
 -1.404529e+73  -1.005405e+74  0 
 2.510504e+72  -1.636399e+74  0 
 -9.740561e+72  -1.718463e+74  0 
 2.462479e+73  -1.117966e+74  0 
VECTORS displacement_ITER16 FLOAT
 -7.139755e+89  5.462378e+89  0 
 -1.218801e+88  3.339055e+89  0 
 -1.092171e+89  7.755614e+86  0 
 -1.808467e+89  -1.161959e+88  0 
 3.699073e+88  -2.755124e+89  0 
 -1.361888e+89  -2.817791e+89  0 
 -5.127007e+88  -5.232362e+89  0 
 -8.974575e+88  5.571067e+88  0 
 -6.318541e+88  2.096739e+88  0 
 -3.884996e+88  1.028414e+89  0 
 -1.074024e+89  5.205154e+88  0 
 -3.360195e+89  1.049359e+88  0 
VECTORS displacement_ITER17 FLOAT
 -7.139755e+89  5.462378e+89  0 
 -1.218801e+88  3.339055e+89  0 
 -1.092171e+89  7.755614e+86  0 
 -1.808467e+89  -1.161959e+88  0 
 3.699073e+88  -2.755124e+89  0 
 -1.361888e+89  -2.817791e+89  0 
 -5.127007e+88  -5.232362e+89  0 
 -8.974575e+88  5.571067e+88  0 
 -6.318541e+88  2.096739e+88  0 
 -3.884996e+88  1.028414e+89  0 
 -1.074024e+89  5.205154e+88  0 
 -3.360195e+89  1.049359e+88  0 
VECTORS displacement_ITER18 FLOAT
 -7.139755e+89  5.462378e+89  0 
 -1.218801e+88  3.339055e+89  0 
 -1.092171e+89  7.755614e+86  0 
 -1.808467e+89  -1.161959e+88  0 
 3.699073e+88  -2.755124e+89  0 
 -1.361888e+89  -2.817791e+89  0 
 -5.127007e+88  -5.232362e+89  0 
 -8.974575e+88  5.571067e+88  0 
 -6.318541e+88  2.096739e+88  0 
 -3.884996e+88  1.028414e+89  0 
 -1.074024e+89  5.205154e+88  0 
 -3.360195e+89  1.049359e+88  0 
VECTORS displacement_ITER19 FLOAT
 -7.139755e+89  5.462378e+89  0 
 -1.218801e+88  3.339055e+89  0 
 -1.092171e+89  7.755614e+86  0 
 -1.808467e+89  -1.161959e+88  0 
 3.699073e+88  -2.755124e+89  0 
 -1.361888e+89  -2.817791e+89  0 
 -5.127007e+88  -5.232362e+89  0 
 -8.974575e+88  5.571067e+88  0 
 -6.318541e+88  2.096739e+88  0 
 -3.884996e+88  1.028414e+89  0 
 -1.074024e+89  5.205154e+88  0 
 -3.360195e+89  1.049359e+88  0 
VECTORS displacement_ITER20 FLOAT
 -7.139755e+89  5.462378e+89  0 
 -1.218801e+88  3.339055e+89  0 
 -1.092171e+89  7.755614e+86  0 
 -1.808467e+89  -1.161959e+88  0 
 3.699073e+88  -2.755124e+89  0 
 -1.361888e+89  -2.817791e+89  0 
 -5.127007e+88  -5.232362e+89  0 
 -8.974575e+88  5.571067e+88  0 
 -6.318541e+88  2.096739e+88  0 
 -3.884996e+88  1.028414e+89  0 
 -1.074024e+89  5.205154e+88  0 
 -3.360195e+89  1.049359e+88  0 
VECTORS displacement_ITER21 FLOAT
 -7.139755e+89  5.462378e+89  0 
 -1.218801e+88  3.339055e+89  0 
 -1.092171e+89  7.755614e+86  0 
 -1.808467e+89  -1.161959e+88  0 
 3.699073e+88  -2.755124e+89  0 
 -1.361888e+89  -2.817791e+89  0 
 -5.127007e+88  -5.232362e+89  0 
 -8.974575e+88  5.571067e+88  0 
 -6.318541e+88  2.096739e+88  0 
 -3.884996e+88  1.028414e+89  0 
 -1.074024e+89  5.205154e+88  0 
 -3.360195e+89  1.049359e+88  0 
VECTORS displacement_ITER22 FLOAT
 -7.139755e+89  5.462378e+89  0 
 -1.218801e+88  3.339055e+89  0 
 -1.092171e+89  7.755614e+86  0 
 -1.808467e+89  -1.161959e+88  0 
 3.699073e+88  -2.755124e+89  0 
 -1.361888e+89  -2.817791e+89  0 
 -5.127007e+88  -5.232362e+89  0 
 -8.974575e+88  5.571067e+88  0 
 -6.318541e+88  2.096739e+88  0 
 -3.884996e+88  1.028414e+89  0 
 -1.074024e+89  5.205154e+88  0 
 -3.360195e+89  1.049359e+88  0 
VECTORS displacement_ITER23 FLOAT
 -7.139755e+89  5.462378e+89  0 
 -1.218801e+88  3.339055e+89  0 
 -1.092171e+89  7.755614e+86  0 
 -1.808467e+89  -1.161959e+88  0 
 3.699073e+88  -2.755124e+89  0 
 -1.361888e+89  -2.817791e+89  0 
 -5.127007e+88  -5.232362e+89  0 
 -8.974575e+88  5.571067e+88  0 
 -6.318541e+88  2.096739e+88  0 
 -3.884996e+88  1.028414e+89  0 
 -1.074024e+89  5.205154e+88  0 
 -3.360195e+89  1.049359e+88  0 
VECTORS displacement_ITER24 FLOAT
 -7.139755e+89  5.462378e+89  0 
 -1.218801e+88  3.339055e+89  0 
 -1.092171e+89  7.755614e+86  0 
 -1.808467e+89  -1.161959e+88  0 
 3.699073e+88  -2.755124e+89  0 
 -1.361888e+89  -2.817791e+89  0 
 -5.127007e+88  -5.232362e+89  0 
 -8.974575e+88  5.571067e+88  0 
 -6.318541e+88  2.096739e+88  0 
 -3.884996e+88  1.028414e+89  0 
 -1.074024e+89  5.205154e+88  0 
 -3.360195e+89  1.049359e+88  0 
VECTORS displacement_ITER25 FLOAT
 -7.139755e+89  5.462378e+89  0 
 -1.218801e+88  3.339055e+89  0 
 -1.092171e+89  7.755614e+86  0 
 -1.808467e+89  -1.161959e+88  0 
 3.699073e+88  -2.755124e+89  0 
 -1.361888e+89  -2.817791e+89  0 
 -5.127007e+88  -5.232362e+89  0 
 -8.974575e+88  5.571067e+88  0 
 -6.318541e+88  2.096739e+88  0 
 -3.884996e+88  1.028414e+89  0 
 -1.074024e+89  5.205154e+88  0 
 -3.360195e+89  1.049359e+88  0 
VECTORS displacement_ITER26 FLOAT
 -7.139755e+89  5.462378e+89  0 
 -1.218801e+88  3.339055e+89  0 
 -1.092171e+89  7.755614e+86  0 
 -1.808467e+89  -1.161959e+88  0 
 3.699073e+88  -2.755124e+89  0 
 -1.361888e+89  -2.817791e+89  0 
 -5.127007e+88  -5.232362e+89  0 
 -8.974575e+88  5.571067e+88  0 
 -6.318541e+88  2.096739e+88  0 
 -3.884996e+88  1.028414e+89  0 
 -1.074024e+89  5.205154e+88  0 
 -3.360195e+89  1.049359e+88  0 
VECTORS displacement_ITER27 FLOAT
 -7.139755e+89  5.462378e+89  0 
 -1.218801e+88  3.339055e+89  0 
 -1.092171e+89  7.755614e+86  0 
 -1.808467e+89  -1.161959e+88  0 
 3.699073e+88  -2.755124e+89  0 
 -1.361888e+89  -2.817791e+89  0 
 -5.127007e+88  -5.232362e+89  0 
 -8.974575e+88  5.571067e+88  0 
 -6.318541e+88  2.096739e+88  0 
 -3.884996e+88  1.028414e+89  0 
 -1.074024e+89  5.205154e+88  0 
 -3.360195e+89  1.049359e+88  0 
VECTORS displacement_ITER28 FLOAT
 -7.139755e+89  5.462378e+89  0 
 -1.218801e+88  3.339055e+89  0 
 -1.092171e+89  7.755614e+86  0 
 -1.808467e+89  -1.161959e+88  0 
 3.699073e+88  -2.755124e+89  0 
 -1.361888e+89  -2.817791e+89  0 
 -5.127007e+88  -5.232362e+89  0 
 -8.974575e+88  5.571067e+88  0 
 -6.318541e+88  2.096739e+88  0 
 -3.884996e+88  1.028414e+89  0 
 -1.074024e+89  5.205154e+88  0 
 -3.360195e+89  1.049359e+88  0 
VECTORS displacement_ITER29 FLOAT
 -7.139755e+89  5.462378e+89  0 
 -1.218801e+88  3.339055e+89  0 
 -1.092171e+89  7.755614e+86  0 
 -1.808467e+89  -1.161959e+88  0 
 3.699073e+88  -2.755124e+89  0 
 -1.361888e+89  -2.817791e+89  0 
 -5.127007e+88  -5.232362e+89  0 
 -8.974575e+88  5.571067e+88  0 
 -6.318541e+88  2.096739e+88  0 
 -3.884996e+88  1.028414e+89  0 
 -1.074024e+89  5.205154e+88  0 
 -3.360195e+89  1.049359e+88  0 
VECTORS displacement_ITER30 FLOAT
 -7.139755e+89  5.462378e+89  0 
 -1.218801e+88  3.339055e+89  0 
 -1.092171e+89  7.755614e+86  0 
 -1.808467e+89  -1.161959e+88  0 
 3.699073e+88  -2.755124e+89  0 
 -1.361888e+89  -2.817791e+89  0 
 -5.127007e+88  -5.232362e+89  0 
 -8.974575e+88  5.571067e+88  0 
 -6.318541e+88  2.096739e+88  0 
 -3.884996e+88  1.028414e+89  0 
 -1.074024e+89  5.205154e+88  0 
 -3.360195e+89  1.049359e+88  0 
VECTORS displacement_ITER31 FLOAT
 -7.139755e+89  5.462378e+89  0 
 -1.218801e+88  3.339055e+89  0 
 -1.092171e+89  7.755614e+86  0 
 -1.808467e+89  -1.161959e+88  0 
 3.699073e+88  -2.755124e+89  0 
 -1.361888e+89  -2.817791e+89  0 
 -5.127007e+88  -5.232362e+89  0 
 -8.974575e+88  5.571067e+88  0 
 -6.318541e+88  2.096739e+88  0 
 -3.884996e+88  1.028414e+89  0 
 -1.074024e+89  5.205154e+88  0 
 -3.360195e+89  1.049359e+88  0 
VECTORS displacement_ITER32 FLOAT
 -7.139755e+89  5.462378e+89  0 
 -1.218801e+88  3.339055e+89  0 
 -1.092171e+89  7.755614e+86  0 
 -1.808467e+89  -1.161959e+88  0 
 3.699073e+88  -2.755124e+89  0 
 -1.361888e+89  -2.817791e+89  0 
 -5.127007e+88  -5.232362e+89  0 
 -8.974575e+88  5.571067e+88  0 
 -6.318541e+88  2.096739e+88  0 
 -3.884996e+88  1.028414e+89  0 
 -1.074024e+89  5.205154e+88  0 
 -3.360195e+89  1.049359e+88  0 
VECTORS displacement_ITER33 FLOAT
 -7.139755e+89  5.462378e+89  0 
 -1.218801e+88  3.339055e+89  0 
 -1.092171e+89  7.755614e+86  0 
 -1.808467e+89  -1.161959e+88  0 
 3.699073e+88  -2.755124e+89  0 
 -1.361888e+89  -2.817791e+89  0 
 -5.127007e+88  -5.232362e+89  0 
 -8.974575e+88  5.571067e+88  0 
 -6.318541e+88  2.096739e+88  0 
 -3.884996e+88  1.028414e+89  0 
 -1.074024e+89  5.205154e+88  0 
 -3.360195e+89  1.049359e+88  0 
VECTORS displacement_ITER34 FLOAT
 -7.139755e+89  5.462378e+89  0 
 -1.218801e+88  3.339055e+89  0 
 -1.092171e+89  7.755614e+86  0 
 -1.808467e+89  -1.161959e+88  0 
 3.699073e+88  -2.755124e+89  0 
 -1.361888e+89  -2.817791e+89  0 
 -5.127007e+88  -5.232362e+89  0 
 -8.974575e+88  5.571067e+88  0 
 -6.318541e+88  2.096739e+88  0 
 -3.884996e+88  1.028414e+89  0 
 -1.074024e+89  5.205154e+88  0 
 -3.360195e+89  1.049359e+88  0 
VECTORS displacement_ITER35 FLOAT
 -7.139755e+89  5.462378e+89  0 
 -1.218801e+88  3.339055e+89  0 
 -1.092171e+89  7.755614e+86  0 
 -1.808467e+89  -1.161959e+88  0 
 3.699073e+88  -2.755124e+89  0 
 -1.361888e+89  -2.817791e+89  0 
 -5.127007e+88  -5.232362e+89  0 
 -8.974575e+88  5.571067e+88  0 
 -6.318541e+88  2.096739e+88  0 
 -3.884996e+88  1.028414e+89  0 
 -1.074024e+89  5.205154e+88  0 
 -3.360195e+89  1.049359e+88  0 
VECTORS displacement_ITER36 FLOAT
 -7.139755e+89  5.462378e+89  0 
 -1.218801e+88  3.339055e+89  0 
 -1.092171e+89  7.755614e+86  0 
 -1.808467e+89  -1.161959e+88  0 
 3.699073e+88  -2.755124e+89  0 
 -1.361888e+89  -2.817791e+89  0 
 -5.127007e+88  -5.232362e+89  0 
 -8.974575e+88  5.571067e+88  0 
 -6.318541e+88  2.096739e+88  0 
 -3.884996e+88  1.028414e+89  0 
 -1.074024e+89  5.205154e+88  0 
 -3.360195e+89  1.049359e+88  0 
VECTORS displacement_ITER37 FLOAT
 -7.139755e+89  5.462378e+89  0 
 -1.218801e+88  3.339055e+89  0 
 -1.092171e+89  7.755614e+86  0 
 -1.808467e+89  -1.161959e+88  0 
 3.699073e+88  -2.755124e+89  0 
 -1.361888e+89  -2.817791e+89  0 
 -5.127007e+88  -5.232362e+89  0 
 -8.974575e+88  5.571067e+88  0 
 -6.318541e+88  2.096739e+88  0 
 -3.884996e+88  1.028414e+89  0 
 -1.074024e+89  5.205154e+88  0 
 -3.360195e+89  1.049359e+88  0 
VECTORS displacement_ITER38 FLOAT
 -7.139755e+89  5.462378e+89  0 
 -1.218801e+88  3.339055e+89  0 
 -1.092171e+89  7.755614e+86  0 
 -1.808467e+89  -1.161959e+88  0 
 3.699073e+88  -2.755124e+89  0 
 -1.361888e+89  -2.817791e+89  0 
 -5.127007e+88  -5.232362e+89  0 
 -8.974575e+88  5.571067e+88  0 
 -6.318541e+88  2.096739e+88  0 
 -3.884996e+88  1.028414e+89  0 
 -1.074024e+89  5.205154e+88  0 
 -3.360195e+89  1.049359e+88  0 
VECTORS displacement_ITER39 FLOAT
 -7.139755e+89  5.462378e+89  0 
 -1.218801e+88  3.339055e+89  0 
 -1.092171e+89  7.755614e+86  0 
 -1.808467e+89  -1.161959e+88  0 
 3.699073e+88  -2.755124e+89  0 
 -1.361888e+89  -2.817791e+89  0 
 -5.127007e+88  -5.232362e+89  0 
 -8.974575e+88  5.571067e+88  0 
 -6.318541e+88  2.096739e+88  0 
 -3.884996e+88  1.028414e+89  0 
 -1.074024e+89  5.205154e+88  0 
 -3.360195e+89  1.049359e+88  0 
VECTORS displacement_ITER40 FLOAT
 -7.139755e+89  5.462378e+89  0 
 -1.218801e+88  3.339055e+89  0 
 -1.092171e+89  7.755614e+86  0 
 -1.808467e+89  -1.161959e+88  0 
 3.699073e+88  -2.755124e+89  0 
 -1.361888e+89  -2.817791e+89  0 
 -5.127007e+88  -5.232362e+89  0 
 -8.974575e+88  5.571067e+88  0 
 -6.318541e+88  2.096739e+88  0 
 -3.884996e+88  1.028414e+89  0 
 -1.074024e+89  5.205154e+88  0 
 -3.360195e+89  1.049359e+88  0 
VECTORS displacement_ITER41 FLOAT
 -7.139755e+89  5.462378e+89  0 
 -1.218801e+88  3.339055e+89  0 
 -1.092171e+89  7.755614e+86  0 
 -1.808467e+89  -1.161959e+88  0 
 3.699073e+88  -2.755124e+89  0 
 -1.361888e+89  -2.817791e+89  0 
 -5.127007e+88  -5.232362e+89  0 
 -8.974575e+88  5.571067e+88  0 
 -6.318541e+88  2.096739e+88  0 
 -3.884996e+88  1.028414e+89  0 
 -1.074024e+89  5.205154e+88  0 
 -3.360195e+89  1.049359e+88  0 
VECTORS displacement_ITER42 FLOAT
 -7.139755e+89  5.462378e+89  0 
 -1.218801e+88  3.339055e+89  0 
 -1.092171e+89  7.755614e+86  0 
 -1.808467e+89  -1.161959e+88  0 
 3.699073e+88  -2.755124e+89  0 
 -1.361888e+89  -2.817791e+89  0 
 -5.127007e+88  -5.232362e+89  0 
 -8.974575e+88  5.571067e+88  0 
 -6.318541e+88  2.096739e+88  0 
 -3.884996e+88  1.028414e+89  0 
 -1.074024e+89  5.205154e+88  0 
 -3.360195e+89  1.049359e+88  0 
VECTORS displacement_ITER43 FLOAT
 -7.139755e+89  5.462378e+89  0 
 -1.218801e+88  3.339055e+89  0 
 -1.092171e+89  7.755614e+86  0 
 -1.808467e+89  -1.161959e+88  0 
 3.699073e+88  -2.755124e+89  0 
 -1.361888e+89  -2.817791e+89  0 
 -5.127007e+88  -5.232362e+89  0 
 -8.974575e+88  5.571067e+88  0 
 -6.318541e+88  2.096739e+88  0 
 -3.884996e+88  1.028414e+89  0 
 -1.074024e+89  5.205154e+88  0 
 -3.360195e+89  1.049359e+88  0 
VECTORS displacement_ITER44 FLOAT
 -7.139755e+89  5.462378e+89  0 
 -1.218801e+88  3.339055e+89  0 
 -1.092171e+89  7.755614e+86  0 
 -1.808467e+89  -1.161959e+88  0 
 3.699073e+88  -2.755124e+89  0 
 -1.361888e+89  -2.817791e+89  0 
 -5.127007e+88  -5.232362e+89  0 
 -8.974575e+88  5.571067e+88  0 
 -6.318541e+88  2.096739e+88  0 
 -3.884996e+88  1.028414e+89  0 
 -1.074024e+89  5.205154e+88  0 
 -3.360195e+89  1.049359e+88  0 
VECTORS displacement_ITER45 FLOAT
 -7.139755e+89  5.462378e+89  0 
 -1.218801e+88  3.339055e+89  0 
 -1.092171e+89  7.755614e+86  0 
 -1.808467e+89  -1.161959e+88  0 
 3.699073e+88  -2.755124e+89  0 
 -1.361888e+89  -2.817791e+89  0 
 -5.127007e+88  -5.232362e+89  0 
 -8.974575e+88  5.571067e+88  0 
 -6.318541e+88  2.096739e+88  0 
 -3.884996e+88  1.028414e+89  0 
 -1.074024e+89  5.205154e+88  0 
 -3.360195e+89  1.049359e+88  0 
VECTORS displacement_ITER46 FLOAT
 -7.139755e+89  5.462378e+89  0 
 -1.218801e+88  3.339055e+89  0 
 -1.092171e+89  7.755614e+86  0 
 -1.808467e+89  -1.161959e+88  0 
 3.699073e+88  -2.755124e+89  0 
 -1.361888e+89  -2.817791e+89  0 
 -5.127007e+88  -5.232362e+89  0 
 -8.974575e+88  5.571067e+88  0 
 -6.318541e+88  2.096739e+88  0 
 -3.884996e+88  1.028414e+89  0 
 -1.074024e+89  5.205154e+88  0 
 -3.360195e+89  1.049359e+88  0 
VECTORS displacement_ITER47 FLOAT
 -7.139755e+89  5.462378e+89  0 
 -1.218801e+88  3.339055e+89  0 
 -1.092171e+89  7.755614e+86  0 
 -1.808467e+89  -1.161959e+88  0 
 3.699073e+88  -2.755124e+89  0 
 -1.361888e+89  -2.817791e+89  0 
 -5.127007e+88  -5.232362e+89  0 
 -8.974575e+88  5.571067e+88  0 
 -6.318541e+88  2.096739e+88  0 
 -3.884996e+88  1.028414e+89  0 
 -1.074024e+89  5.205154e+88  0 
 -3.360195e+89  1.049359e+88  0 
VECTORS displacement_ITER48 FLOAT
 -7.139755e+89  5.462378e+89  0 
 -1.218801e+88  3.339055e+89  0 
 -1.092171e+89  7.755614e+86  0 
 -1.808467e+89  -1.161959e+88  0 
 3.699073e+88  -2.755124e+89  0 
 -1.361888e+89  -2.817791e+89  0 
 -5.127007e+88  -5.232362e+89  0 
 -8.974575e+88  5.571067e+88  0 
 -6.318541e+88  2.096739e+88  0 
 -3.884996e+88  1.028414e+89  0 
 -1.074024e+89  5.205154e+88  0 
 -3.360195e+89  1.049359e+88  0 
VECTORS displacement_ITER49 FLOAT
 -7.139755e+89  5.462378e+89  0 
 -1.218801e+88  3.339055e+89  0 
 -1.092171e+89  7.755614e+86  0 
 -1.808467e+89  -1.161959e+88  0 
 3.699073e+88  -2.755124e+89  0 
 -1.361888e+89  -2.817791e+89  0 
 -5.127007e+88  -5.232362e+89  0 
 -8.974575e+88  5.571067e+88  0 
 -6.318541e+88  2.096739e+88  0 
 -3.884996e+88  1.028414e+89  0 
 -1.074024e+89  5.205154e+88  0 
 -3.360195e+89  1.049359e+88  0 
VECTORS displacement_ITER50 FLOAT
 -7.139755e+89  5.462378e+89  0 
 -1.218801e+88  3.339055e+89  0 
 -1.092171e+89  7.755614e+86  0 
 -1.808467e+89  -1.161959e+88  0 
 3.699073e+88  -2.755124e+89  0 
 -1.361888e+89  -2.817791e+89  0 
 -5.127007e+88  -5.232362e+89  0 
 -8.974575e+88  5.571067e+88  0 
 -6.318541e+88  2.096739e+88  0 
 -3.884996e+88  1.028414e+89  0 
 -1.074024e+89  5.205154e+88  0 
 -3.360195e+89  1.049359e+88  0 
VECTORS displacement_ITER51 FLOAT
 -7.139755e+89  5.462378e+89  0 
 -1.218801e+88  3.339055e+89  0 
 -1.092171e+89  7.755614e+86  0 
 -1.808467e+89  -1.161959e+88  0 
 3.699073e+88  -2.755124e+89  0 
 -1.361888e+89  -2.817791e+89  0 
 -5.127007e+88  -5.232362e+89  0 
 -8.974575e+88  5.571067e+88  0 
 -6.318541e+88  2.096739e+88  0 
 -3.884996e+88  1.028414e+89  0 
 -1.074024e+89  5.205154e+88  0 
 -3.360195e+89  1.049359e+88  0 
VECTORS displacement_ITER52 FLOAT
 -7.139755e+89  5.462378e+89  0 
 -1.218801e+88  3.339055e+89  0 
 -1.092171e+89  7.755614e+86  0 
 -1.808467e+89  -1.161959e+88  0 
 3.699073e+88  -2.755124e+89  0 
 -1.361888e+89  -2.817791e+89  0 
 -5.127007e+88  -5.232362e+89  0 
 -8.974575e+88  5.571067e+88  0 
 -6.318541e+88  2.096739e+88  0 
 -3.884996e+88  1.028414e+89  0 
 -1.074024e+89  5.205154e+88  0 
 -3.360195e+89  1.049359e+88  0 
VECTORS displacement_ITER53 FLOAT
 -7.139755e+89  5.462378e+89  0 
 -1.218801e+88  3.339055e+89  0 
 -1.092171e+89  7.755614e+86  0 
 -1.808467e+89  -1.161959e+88  0 
 3.699073e+88  -2.755124e+89  0 
 -1.361888e+89  -2.817791e+89  0 
 -5.127007e+88  -5.232362e+89  0 
 -8.974575e+88  5.571067e+88  0 
 -6.318541e+88  2.096739e+88  0 
 -3.884996e+88  1.028414e+89  0 
 -1.074024e+89  5.205154e+88  0 
 -3.360195e+89  1.049359e+88  0 
VECTORS displacement_ITER54 FLOAT
 -7.139755e+89  5.462378e+89  0 
 -1.218801e+88  3.339055e+89  0 
 -1.092171e+89  7.755614e+86  0 
 -1.808467e+89  -1.161959e+88  0 
 3.699073e+88  -2.755124e+89  0 
 -1.361888e+89  -2.817791e+89  0 
 -5.127007e+88  -5.232362e+89  0 
 -8.974575e+88  5.571067e+88  0 
 -6.318541e+88  2.096739e+88  0 
 -3.884996e+88  1.028414e+89  0 
 -1.074024e+89  5.205154e+88  0 
 -3.360195e+89  1.049359e+88  0 
VECTORS displacement_ITER55 FLOAT
 -7.139755e+89  5.462378e+89  0 
 -1.218801e+88  3.339055e+89  0 
 -1.092171e+89  7.755614e+86  0 
 -1.808467e+89  -1.161959e+88  0 
 3.699073e+88  -2.755124e+89  0 
 -1.361888e+89  -2.817791e+89  0 
 -5.127007e+88  -5.232362e+89  0 
 -8.974575e+88  5.571067e+88  0 
 -6.318541e+88  2.096739e+88  0 
 -3.884996e+88  1.028414e+89  0 
 -1.074024e+89  5.205154e+88  0 
 -3.360195e+89  1.049359e+88  0 
VECTORS displacement_ITER56 FLOAT
 -7.139755e+89  5.462378e+89  0 
 -1.218801e+88  3.339055e+89  0 
 -1.092171e+89  7.755614e+86  0 
 -1.808467e+89  -1.161959e+88  0 
 3.699073e+88  -2.755124e+89  0 
 -1.361888e+89  -2.817791e+89  0 
 -5.127007e+88  -5.232362e+89  0 
 -8.974575e+88  5.571067e+88  0 
 -6.318541e+88  2.096739e+88  0 
 -3.884996e+88  1.028414e+89  0 
 -1.074024e+89  5.205154e+88  0 
 -3.360195e+89  1.049359e+88  0 
VECTORS displacement_ITER57 FLOAT
 -7.139755e+89  5.462378e+89  0 
 -1.218801e+88  3.339055e+89  0 
 -1.092171e+89  7.755614e+86  0 
 -1.808467e+89  -1.161959e+88  0 
 3.699073e+88  -2.755124e+89  0 
 -1.361888e+89  -2.817791e+89  0 
 -5.127007e+88  -5.232362e+89  0 
 -8.974575e+88  5.571067e+88  0 
 -6.318541e+88  2.096739e+88  0 
 -3.884996e+88  1.028414e+89  0 
 -1.074024e+89  5.205154e+88  0 
 -3.360195e+89  1.049359e+88  0 
VECTORS displacement_ITER58 FLOAT
 -7.139755e+89  5.462378e+89  0 
 -1.218801e+88  3.339055e+89  0 
 -1.092171e+89  7.755614e+86  0 
 -1.808467e+89  -1.161959e+88  0 
 3.699073e+88  -2.755124e+89  0 
 -1.361888e+89  -2.817791e+89  0 
 -5.127007e+88  -5.232362e+89  0 
 -8.974575e+88  5.571067e+88  0 
 -6.318541e+88  2.096739e+88  0 
 -3.884996e+88  1.028414e+89  0 
 -1.074024e+89  5.205154e+88  0 
 -3.360195e+89  1.049359e+88  0 
VECTORS displacement_ITER59 FLOAT
 -7.139755e+89  5.462378e+89  0 
 -1.218801e+88  3.339055e+89  0 
 -1.092171e+89  7.755614e+86  0 
 -1.808467e+89  -1.161959e+88  0 
 3.699073e+88  -2.755124e+89  0 
 -1.361888e+89  -2.817791e+89  0 
 -5.127007e+88  -5.232362e+89  0 
 -8.974575e+88  5.571067e+88  0 
 -6.318541e+88  2.096739e+88  0 
 -3.884996e+88  1.028414e+89  0 
 -1.074024e+89  5.205154e+88  0 
 -3.360195e+89  1.049359e+88  0 
VECTORS displacement_ITER60 FLOAT
 -7.139755e+89  5.462378e+89  0 
 -1.218801e+88  3.339055e+89  0 
 -1.092171e+89  7.755614e+86  0 
 -1.808467e+89  -1.161959e+88  0 
 3.699073e+88  -2.755124e+89  0 
 -1.361888e+89  -2.817791e+89  0 
 -5.127007e+88  -5.232362e+89  0 
 -8.974575e+88  5.571067e+88  0 
 -6.318541e+88  2.096739e+88  0 
 -3.884996e+88  1.028414e+89  0 
 -1.074024e+89  5.205154e+88  0 
 -3.360195e+89  1.049359e+88  0 
VECTORS displacement_ITER61 FLOAT
 -7.139755e+89  5.462378e+89  0 
 -1.218801e+88  3.339055e+89  0 
 -1.092171e+89  7.755614e+86  0 
 -1.808467e+89  -1.161959e+88  0 
 3.699073e+88  -2.755124e+89  0 
 -1.361888e+89  -2.817791e+89  0 
 -5.127007e+88  -5.232362e+89  0 
 -8.974575e+88  5.571067e+88  0 
 -6.318541e+88  2.096739e+88  0 
 -3.884996e+88  1.028414e+89  0 
 -1.074024e+89  5.205154e+88  0 
 -3.360195e+89  1.049359e+88  0 
VECTORS displacement_ITER62 FLOAT
 -7.139755e+89  5.462378e+89  0 
 -1.218801e+88  3.339055e+89  0 
 -1.092171e+89  7.755614e+86  0 
 -1.808467e+89  -1.161959e+88  0 
 3.699073e+88  -2.755124e+89  0 
 -1.361888e+89  -2.817791e+89  0 
 -5.127007e+88  -5.232362e+89  0 
 -8.974575e+88  5.571067e+88  0 
 -6.318541e+88  2.096739e+88  0 
 -3.884996e+88  1.028414e+89  0 
 -1.074024e+89  5.205154e+88  0 
 -3.360195e+89  1.049359e+88  0 
VECTORS displacement_ITER63 FLOAT
 -7.139755e+89  5.462378e+89  0 
 -1.218801e+88  3.339055e+89  0 
 -1.092171e+89  7.755614e+86  0 
 -1.808467e+89  -1.161959e+88  0 
 3.699073e+88  -2.755124e+89  0 
 -1.361888e+89  -2.817791e+89  0 
 -5.127007e+88  -5.232362e+89  0 
 -8.974575e+88  5.571067e+88  0 
 -6.318541e+88  2.096739e+88  0 
 -3.884996e+88  1.028414e+89  0 
 -1.074024e+89  5.205154e+88  0 
 -3.360195e+89  1.049359e+88  0 
VECTORS displacement_ITER64 FLOAT
 -7.139755e+89  5.462378e+89  0 
 -1.218801e+88  3.339055e+89  0 
 -1.092171e+89  7.755614e+86  0 
 -1.808467e+89  -1.161959e+88  0 
 3.699073e+88  -2.755124e+89  0 
 -1.361888e+89  -2.817791e+89  0 
 -5.127007e+88  -5.232362e+89  0 
 -8.974575e+88  5.571067e+88  0 
 -6.318541e+88  2.096739e+88  0 
 -3.884996e+88  1.028414e+89  0 
 -1.074024e+89  5.205154e+88  0 
 -3.360195e+89  1.049359e+88  0 
VECTORS displacement_ITER65 FLOAT
 -7.139755e+89  5.462378e+89  0 
 -1.218801e+88  3.339055e+89  0 
 -1.092171e+89  7.755614e+86  0 
 -1.808467e+89  -1.161959e+88  0 
 3.699073e+88  -2.755124e+89  0 
 -1.361888e+89  -2.817791e+89  0 
 -5.127007e+88  -5.232362e+89  0 
 -8.974575e+88  5.571067e+88  0 
 -6.318541e+88  2.096739e+88  0 
 -3.884996e+88  1.028414e+89  0 
 -1.074024e+89  5.205154e+88  0 
 -3.360195e+89  1.049359e+88  0 
VECTORS displacement_ITER66 FLOAT
 -7.139755e+89  5.462378e+89  0 
 -1.218801e+88  3.339055e+89  0 
 -1.092171e+89  7.755614e+86  0 
 -1.808467e+89  -1.161959e+88  0 
 3.699073e+88  -2.755124e+89  0 
 -1.361888e+89  -2.817791e+89  0 
 -5.127007e+88  -5.232362e+89  0 
 -8.974575e+88  5.571067e+88  0 
 -6.318541e+88  2.096739e+88  0 
 -3.884996e+88  1.028414e+89  0 
 -1.074024e+89  5.205154e+88  0 
 -3.360195e+89  1.049359e+88  0 
VECTORS displacement_ITER67 FLOAT
 -7.139755e+89  5.462378e+89  0 
 -1.218801e+88  3.339055e+89  0 
 -1.092171e+89  7.755614e+86  0 
 -1.808467e+89  -1.161959e+88  0 
 3.699073e+88  -2.755124e+89  0 
 -1.361888e+89  -2.817791e+89  0 
 -5.127007e+88  -5.232362e+89  0 
 -8.974575e+88  5.571067e+88  0 
 -6.318541e+88  2.096739e+88  0 
 -3.884996e+88  1.028414e+89  0 
 -1.074024e+89  5.205154e+88  0 
 -3.360195e+89  1.049359e+88  0 
VECTORS displacement_ITER68 FLOAT
 -7.139755e+89  5.462378e+89  0 
 -1.218801e+88  3.339055e+89  0 
 -1.092171e+89  7.755614e+86  0 
 -1.808467e+89  -1.161959e+88  0 
 3.699073e+88  -2.755124e+89  0 
 -1.361888e+89  -2.817791e+89  0 
 -5.127007e+88  -5.232362e+89  0 
 -8.974575e+88  5.571067e+88  0 
 -6.318541e+88  2.096739e+88  0 
 -3.884996e+88  1.028414e+89  0 
 -1.074024e+89  5.205154e+88  0 
 -3.360195e+89  1.049359e+88  0 