# vtk DataFile Version 3.1
this is an vtk file created by FEMAC
ASCII
DATASET UNSTRUCTURED_GRID
POINTS 12 FLOAT
4.000000 0.000000 0.000000
4.500000 0.000000 0.000000
4.000000 0.200000 0.000000
4.000000 0.400000 0.000000
4.000000 0.600000 0.000000
4.000000 0.800000 0.000000
4.000000 1.000000 0.000000
4.500000 0.200000 0.000000
4.500000 0.400000 0.000000
4.500000 0.600000 0.000000
4.500000 0.800000 0.000000
4.500000 1.000000 0.000000
CELLS 5 25 
4 0 1 7 2
4 2 7 8 3
4 3 8 9 4
4 4  9 10  5
4 5 10 11  6
CELL_TYPES 5
9 9 9 9 9 
POINT_DATA 12
VECTORS displacement_ITER1 FLOAT
 -4.930643e-03  -2.217173e-02  0 
 -5.023607e-03  -2.714721e-02  0 
 -2.925725e-03  -2.216565e-02  0 
 -9.771889e-04  -2.212465e-02  0 
 1.019420e-03  -2.212465e-02  0 
 2.967956e-03  -2.216565e-02  0 
 4.972874e-03  -2.217173e-02  0 
 -3.046478e-03  -2.715219e-02  0 
 -9.947751e-04  -2.719453e-02  0 
 1.037006e-03  -2.719453e-02  0 
 3.088709e-03  -2.715219e-02  0 
 5.065838e-03  -2.714721e-02  0 
VECTORS displacement_ITER2 FLOAT
 -4.715979e-03  -2.194430e-02  0 
 -4.803657e-03  -2.675307e-02  0 
 -2.770022e-03  -2.194404e-02  0 
 -9.275647e-04  -2.194458e-02  0 
 9.630458e-04  -2.194458e-02  0 
 2.805503e-03  -2.194404e-02  0 
 4.751460e-03  -2.194430e-02  0 
 -2.905194e-03  -2.675381e-02  0 
 -9.471404e-04  -2.674820e-02  0 
 9.826215e-04  -2.674820e-02  0 
 2.940675e-03  -2.675381e-02  0 
 4.839138e-03  -2.675307e-02  0 
VECTORS displacement_ITER3 FLOAT
 -4.713080e-03  -2.192274e-02  0 
 -4.800610e-03  -2.672332e-02  0 
 -2.770436e-03  -2.192182e-02  0 
 -9.310101e-04  -2.192633e-02  0 
 9.552985e-04  -2.192633e-02  0 
 2.794725e-03  -2.192182e-02  0 
 4.737368e-03  -2.192274e-02  0 
 -2.905351e-03  -2.672383e-02  0 
 -9.512024e-04  -2.672041e-02  0 
 9.754908e-04  -2.672041e-02  0 
 2.929640e-03  -2.672383e-02  0 
 4.824898e-03  -2.672332e-02  0 
VECTORS displacement_ITER4 FLOAT
 -4.712266e-03  -2.191942e-02  0 
 -4.799702e-03  -2.671814e-02  0 
 -2.770415e-03  -2.191837e-02  0 
 -9.310829e-04  -2.192231e-02  0 
 9.543711e-04  -2.192224e-02  0 
 2.794155e-03  -2.191796e-02  0 
 4.736276e-03  -2.191901e-02  0 
 -2.905079e-03  -2.671889e-02  0 
 -9.517668e-04  -2.671540e-02  0 
 9.751570e-04  -2.671544e-02  0 
 2.928747e-03  -2.671920e-02  0 
 4.823680e-03  -2.671846e-02  0 
VECTORS displacement_ITER5 FLOAT
 -4.713323e-03  -2.191829e-02  0 
 -4.800724e-03  -2.671754e-02  0 
 -2.771299e-03  -2.191726e-02  0 
 -9.314596e-04  -2.192134e-02  0 
 9.539056e-04  -2.192133e-02  0 
 2.793754e-03  -2.191728e-02  0 
 4.735765e-03  -2.191830e-02  0 
 -2.905865e-03  -2.671826e-02  0 
 -9.522955e-04  -2.671459e-02  0 
 9.747420e-04  -2.671460e-02  0 
 2.928317e-03  -2.671825e-02  0 
 4.823169e-03  -2.671754e-02  0 
VECTORS displacement_ITER6 FLOAT
 -4.713660e-03  -2.191828e-02  0 
 -4.801061e-03  -2.671756e-02  0 
 -2.771630e-03  -2.191726e-02  0 
 -9.317564e-04  -2.192134e-02  0 
 9.536198e-04  -2.192134e-02  0 
 2.793455e-03  -2.191728e-02  0 
 4.735482e-03  -2.191830e-02  0 
 -2.906189e-03  -2.671828e-02  0 
 -9.525998e-04  -2.671462e-02  0 
 9.744486e-04  -2.671462e-02  0 
 2.928025e-03  -2.671829e-02  0 
 4.822887e-03  -2.671757e-02  0 
VECTORS displacement_ITER7 FLOAT
 -4.713560e-03  -2.191828e-02  0 
 -4.800963e-03  -2.671756e-02  0 
 -2.771530e-03  -2.191726e-02  0 
 -9.316741e-04  -2.192133e-02  0 
 9.537036e-04  -2.192133e-02  0 
 2.793560e-03  -2.191726e-02  0 
 4.735591e-03  -2.191828e-02  0 
 -2.906095e-03  -2.671828e-02  0 
 -9.525101e-04  -2.671462e-02  0 
 9.745400e-04  -2.671462e-02  0 
 2.928124e-03  -2.671828e-02  0 
 4.822993e-03  -2.671756e-02  0 
VECTORS displacement_ITER8 FLOAT
 -4.713582e-03  -2.191829e-02  0 
 -4.800985e-03  -2.671756e-02  0 
 -2.771553e-03  -2.191726e-02  0 
 -9.316967e-04  -2.192133e-02  0 
 9.536808e-04  -2.192133e-02  0 
 2.793537e-03  -2.191726e-02  0 
 4.735567e-03  -2.191828e-02  0 
 -2.906117e-03  -2.671828e-02  0 
 -9.525329e-04  -2.671462e-02  0 
 9.745169e-04  -2.671462e-02  0 
 2.928101e-03  -2.671828e-02  0 
 4.822970e-03  -2.671756e-02  0 
VECTORS displacement_ITER9 FLOAT
 -4.713582e-03  -2.191828e-02  0 
 -4.800985e-03  -2.671756e-02  0 
 -2.771553e-03  -2.191726e-02  0 
 -9.316968e-04  -2.192133e-02  0 
 9.536807e-04  -2.192133e-02  0 
 2.793537e-03  -2.191726e-02  0 
 4.735567e-03  -2.191828e-02  0 
 -2.906117e-03  -2.671828e-02  0 
 -9.525328e-04  -2.671462e-02  0 
 9.745170e-04  -2.671462e-02  0 
 2.928101e-03  -2.671828e-02  0 
 4.822970e-03  -2.671756e-02  0 
VECTORS displacement_ITER10 FLOAT
 -1.287484e-01  1.506538e+00  0 
 -1.722714e-01  1.557227e+00  0 
 -1.434928e-01  1.503322e+00  0 
 -1.285700e-01  1.398873e+00  0 
 -2.713235e-01  1.391288e+00  0 
 -2.958544e-01  1.471734e+00  0 
 -3.535839e-01  1.472179e+00  0 
 -2.050594e-01  1.564377e+00  0 
 -2.037329e-01  1.672488e+00  0 
 -3.112250e-01  1.677484e+00  0 
 -3.261303e-01  1.587352e+00  0 
 -3.672198e-01  1.582609e+00  0 
VECTORS displacement_ITER11 FLOAT
 5.090618e+13  1.879191e+12  0 
 5.293851e+13  3.874068e+13  0 
 3.523592e+13  -2.941788e+12  0 
 2.077097e+13  -2.215127e+13  0 
 1.915707e+13  -2.107562e+13  0 
 5.838593e+12  -1.450532e+13  0 
 -7.909894e+12  -1.117019e+13  0 
 3.986164e+13  4.174969e+13  0 
 2.688572e+13  1.386554e+13  0 
 9.416713e+12  1.209764e+13  0 
 1.630163e+13  4.080919e+13  0 
 -7.305206e+12  4.072703e+13  0 
VECTORS displacement_ITER12 FLOAT
 4.010298e+28  4.404841e+28  0 
 5.155956e+28  4.600326e+28  0 
 4.462401e+28  4.306624e+28  0 
 2.692017e+28  2.829281e+28  0 
 1.353549e+28  2.929774e+28  0 
 -2.160224e+28  1.206009e+28  0 
 -2.516934e+28  1.414036e+28  0 
 4.755265e+28  4.712823e+28  0 
 2.520507e+28  4.872102e+28  0 
 1.789448e+28  4.786289e+28  0 
 -1.035688e+27  3.980176e+28  0 
 -1.505594e+28  3.797235e+28  0 
VECTORS displacement_ITER13 FLOAT
 4.801065e+43  2.301388e+43  0 
 4.200605e+43  6.727329e+43  0 
 3.053975e+43  2.773679e+43  0 
 1.647302e+43  3.902726e+43  0 
 7.366550e+42  4.144275e+43  0 
 2.323250e+43  5.381308e+43  0 
 2.564504e+43  4.999857e+43  0 
 2.721935e+43  6.595070e+43  0 
 1.820881e+43  6.743961e+43  0 
 8.236289e+42  6.375268e+43  0 
 1.797430e+43  5.102875e+43  0 
 1.495002e+43  5.157651e+43  0 
VECTORS displacement_ITER14 FLOAT
 -1.113064e+58  1.951364e+57  0 
 -4.281106e+57  -1.473634e+58  0 
 -5.160920e+57  5.247436e+57  0 
 -1.114487e+58  -2.479169e+58  0 
 -1.245280e+58  -2.120546e+58  0 
 -4.834771e+57  -2.967732e+58  0 
 -4.533238e+57  -3.200946e+58  0 
 3.316206e+57  -1.912463e+58  0 
 -2.762178e+57  -6.059334e+56  0 
 -2.127084e+58  -6.801859e+57  0 
 1.215996e+57  -2.500639e+58  0 
 -1.554804e+57  -2.687127e+58  0 
VECTORS displacement_ITER15 FLOAT
 -1.427930e+74  -1.596075e+74  0 
 -1.158794e+74  -1.881005e+74  0 
 -1.395686e+74  -1.559090e+74  0 
 -6.655347e+73  -1.413208e+74  0 
 -4.013907e+73  -1.527363e+74  0 
 -9.505006e+73  -1.558090e+74  0 
 -6.543024e+73  -1.545393e+74  0 
 -8.939566e+73  -1.861505e+74  0 
 -7.906500e+73  -2.061648e+74  0 
 -4.023438e+73  -1.917055e+74  0 
 -5.849844e+73  -2.175664e+74  0 
 -3.390290e+73  -2.146000e+74  0 
VECTORS displacement_ITER16 FLOAT
 -7.609071e+89  8.183126e+89  0 
 -8.292673e+89  4.859693e+88  0 
 -5.374872e+89  7.813132e+89  0 
 -2.710408e+89  3.913403e+89  0 
 -2.389057e+89  4.220643e+89  0 
 -2.843739e+89  1.416445e+89  0 
 -3.264477e+89  1.411217e+89  0 
 -4.892859e+89  7.633235e+88  0 
 -2.831532e+89  2.391994e+89  0 
 -1.620080e+89  2.044987e+89  0 
 -3.511851e+89  5.775915e+88  0 
 -2.285959e+89  5.015035e+88  0 
VECTORS displacement_ITER17 FLOAT
 -7.609071e+89  8.183126e+89  0 
 -8.292673e+89  4.859693e+88  0 
 -5.374872e+89  7.813132e+89  0 
 -2.710408e+89  3.913403e+89  0 
 -2.389057e+89  4.220643e+89  0 
 -2.843739e+89  1.416445e+89  0 
 -3.264477e+89  1.411217e+89  0 
 -4.892859e+89  7.633235e+88  0 
 -2.831532e+89  2.391994e+89  0 
 -1.620080e+89  2.044987e+89  0 
 -3.511851e+89  5.775915e+88  0 
 -2.285959e+89  5.015035e+88  0 
VECTORS displacement_ITER18 FLOAT
 -7.609071e+89  8.183126e+89  0 
 -8.292673e+89  4.859693e+88  0 
 -5.374872e+89  7.813132e+89  0 
 -2.710408e+89  3.913403e+89  0 
 -2.389057e+89  4.220643e+89  0 
 -2.843739e+89  1.416445e+89  0 
 -3.264477e+89  1.411217e+89  0 
 -4.892859e+89  7.633235e+88  0 
 -2.831532e+89  2.391994e+89  0 
 -1.620080e+89  2.044987e+89  0 
 -3.511851e+89  5.775915e+88  0 
 -2.285959e+89  5.015035e+88  0 
VECTORS displacement_ITER19 FLOAT
 -7.609071e+89  8.183126e+89  0 
 -8.292673e+89  4.859693e+88  0 
 -5.374872e+89  7.813132e+89  0 
 -2.710408e+89  3.913403e+89  0 
 -2.389057e+89  4.220643e+89  0 
 -2.843739e+89  1.416445e+89  0 
 -3.264477e+89  1.411217e+89  0 
 -4.892859e+89  7.633235e+88  0 
 -2.831532e+89  2.391994e+89  0 
 -1.620080e+89  2.044987e+89  0 
 -3.511851e+89  5.775915e+88  0 
 -2.285959e+89  5.015035e+88  0 
VECTORS displacement_ITER20 FLOAT
 -7.609071e+89  8.183126e+89  0 
 -8.292673e+89  4.859693e+88  0 
 -5.374872e+89  7.813132e+89  0 
 -2.710408e+89  3.913403e+89  0 
 -2.389057e+89  4.220643e+89  0 
 -2.843739e+89  1.416445e+89  0 
 -3.264477e+89  1.411217e+89  0 
 -4.892859e+89  7.633235e+88  0 
 -2.831532e+89  2.391994e+89  0 
 -1.620080e+89  2.044987e+89  0 
 -3.511851e+89  5.775915e+88  0 
 -2.285959e+89  5.015035e+88  0 
VECTORS displacement_ITER21 FLOAT
 -7.609071e+89  8.183126e+89  0 
 -8.292673e+89  4.859693e+88  0 
 -5.374872e+89  7.813132e+89  0 
 -2.710408e+89  3.913403e+89  0 
 -2.389057e+89  4.220643e+89  0 
 -2.843739e+89  1.416445e+89  0 
 -3.264477e+89  1.411217e+89  0 
 -4.892859e+89  7.633235e+88  0 
 -2.831532e+89  2.391994e+89  0 
 -1.620080e+89  2.044987e+89  0 
 -3.511851e+89  5.775915e+88  0 
 -2.285959e+89  5.015035e+88  0 
VECTORS displacement_ITER22 FLOAT
 -7.609071e+89  8.183126e+89  0 
 -8.292673e+89  4.859693e+88  0 
 -5.374872e+89  7.813132e+89  0 
 -2.710408e+89  3.913403e+89  0 
 -2.389057e+89  4.220643e+89  0 
 -2.843739e+89  1.416445e+89  0 
 -3.264477e+89  1.411217e+89  0 
 -4.892859e+89  7.633235e+88  0 
 -2.831532e+89  2.391994e+89  0 
 -1.620080e+89  2.044987e+89  0 
 -3.511851e+89  5.775915e+88  0 
 -2.285959e+89  5.015035e+88  0 
VECTORS displacement_ITER23 FLOAT
 -7.609071e+89  8.183126e+89  0 
 -8.292673e+89  4.859693e+88  0 
 -5.374872e+89  7.813132e+89  0 
 -2.710408e+89  3.913403e+89  0 
 -2.389057e+89  4.220643e+89  0 
 -2.843739e+89  1.416445e+89  0 
 -3.264477e+89  1.411217e+89  0 
 -4.892859e+89  7.633235e+88  0 
 -2.831532e+89  2.391994e+89  0 
 -1.620080e+89  2.044987e+89  0 
 -3.511851e+89  5.775915e+88  0 
 -2.285959e+89  5.015035e+88  0 
VECTORS displacement_ITER24 FLOAT
 -7.609071e+89  8.183126e+89  0 
 -8.292673e+89  4.859693e+88  0 
 -5.374872e+89  7.813132e+89  0 
 -2.710408e+89  3.913403e+89  0 
 -2.389057e+89  4.220643e+89  0 
 -2.843739e+89  1.416445e+89  0 
 -3.264477e+89  1.411217e+89  0 
 -4.892859e+89  7.633235e+88  0 
 -2.831532e+89  2.391994e+89  0 
 -1.620080e+89  2.044987e+89  0 
 -3.511851e+89  5.775915e+88  0 
 -2.285959e+89  5.015035e+88  0 
VECTORS displacement_ITER25 FLOAT
 -7.609071e+89  8.183126e+89  0 
 -8.292673e+89  4.859693e+88  0 
 -5.374872e+89  7.813132e+89  0 
 -2.710408e+89  3.913403e+89  0 
 -2.389057e+89  4.220643e+89  0 
 -2.843739e+89  1.416445e+89  0 
 -3.264477e+89  1.411217e+89  0 
 -4.892859e+89  7.633235e+88  0 
 -2.831532e+89  2.391994e+89  0 
 -1.620080e+89  2.044987e+89  0 
 -3.511851e+89  5.775915e+88  0 
 -2.285959e+89  5.015035e+88  0 
VECTORS displacement_ITER26 FLOAT
 -7.609071e+89  8.183126e+89  0 
 -8.292673e+89  4.859693e+88  0 
 -5.374872e+89  7.813132e+89  0 
 -2.710408e+89  3.913403e+89  0 
 -2.389057e+89  4.220643e+89  0 
 -2.843739e+89  1.416445e+89  0 
 -3.264477e+89  1.411217e+89  0 
 -4.892859e+89  7.633235e+88  0 
 -2.831532e+89  2.391994e+89  0 
 -1.620080e+89  2.044987e+89  0 
 -3.511851e+89  5.775915e+88  0 
 -2.285959e+89  5.015035e+88  0 
VECTORS displacement_ITER27 FLOAT
 -7.609071e+89  8.183126e+89  0 
 -8.292673e+89  4.859693e+88  0 
 -5.374872e+89  7.813132e+89  0 
 -2.710408e+89  3.913403e+89  0 
 -2.389057e+89  4.220643e+89  0 
 -2.843739e+89  1.416445e+89  0 
 -3.264477e+89  1.411217e+89  0 
 -4.892859e+89  7.633235e+88  0 
 -2.831532e+89  2.391994e+89  0 
 -1.620080e+89  2.044987e+89  0 
 -3.511851e+89  5.775915e+88  0 
 -2.285959e+89  5.015035e+88  0 
VECTORS displacement_ITER28 FLOAT
 -7.609071e+89  8.183126e+89  0 
 -8.292673e+89  4.859693e+88  0 
 -5.374872e+89  7.813132e+89  0 
 -2.710408e+89  3.913403e+89  0 
 -2.389057e+89  4.220643e+89  0 
 -2.843739e+89  1.416445e+89  0 
 -3.264477e+89  1.411217e+89  0 
 -4.892859e+89  7.633235e+88  0 
 -2.831532e+89  2.391994e+89  0 
 -1.620080e+89  2.044987e+89  0 
 -3.511851e+89  5.775915e+88  0 
 -2.285959e+89  5.015035e+88  0 
VECTORS displacement_ITER29 FLOAT
 -7.609071e+89  8.183126e+89  0 
 -8.292673e+89  4.859693e+88  0 
 -5.374872e+89  7.813132e+89  0 
 -2.710408e+89  3.913403e+89  0 
 -2.389057e+89  4.220643e+89  0 
 -2.843739e+89  1.416445e+89  0 
 -3.264477e+89  1.411217e+89  0 
 -4.892859e+89  7.633235e+88  0 
 -2.831532e+89  2.391994e+89  0 
 -1.620080e+89  2.044987e+89  0 
 -3.511851e+89  5.775915e+88  0 
 -2.285959e+89  5.015035e+88  0 
VECTORS displacement_ITER30 FLOAT
 -7.609071e+89  8.183126e+89  0 
 -8.292673e+89  4.859693e+88  0 
 -5.374872e+89  7.813132e+89  0 
 -2.710408e+89  3.913403e+89  0 
 -2.389057e+89  4.220643e+89  0 
 -2.843739e+89  1.416445e+89  0 
 -3.264477e+89  1.411217e+89  0 
 -4.892859e+89  7.633235e+88  0 
 -2.831532e+89  2.391994e+89  0 
 -1.620080e+89  2.044987e+89  0 
 -3.511851e+89  5.775915e+88  0 
 -2.285959e+89  5.015035e+88  0 
VECTORS displacement_ITER31 FLOAT
 -7.609071e+89  8.183126e+89  0 
 -8.292673e+89  4.859693e+88  0 
 -5.374872e+89  7.813132e+89  0 
 -2.710408e+89  3.913403e+89  0 
 -2.389057e+89  4.220643e+89  0 
 -2.843739e+89  1.416445e+89  0 
 -3.264477e+89  1.411217e+89  0 
 -4.892859e+89  7.633235e+88  0 
 -2.831532e+89  2.391994e+89  0 
 -1.620080e+89  2.044987e+89  0 
 -3.511851e+89  5.775915e+88  0 
 -2.285959e+89  5.015035e+88  0 
VECTORS displacement_ITER32 FLOAT
 -7.609071e+89  8.183126e+89  0 
 -8.292673e+89  4.859693e+88  0 
 -5.374872e+89  7.813132e+89  0 
 -2.710408e+89  3.913403e+89  0 
 -2.389057e+89  4.220643e+89  0 
 -2.843739e+89  1.416445e+89  0 
 -3.264477e+89  1.411217e+89  0 
 -4.892859e+89  7.633235e+88  0 
 -2.831532e+89  2.391994e+89  0 
 -1.620080e+89  2.044987e+89  0 
 -3.511851e+89  5.775915e+88  0 
 -2.285959e+89  5.015035e+88  0 
VECTORS displacement_ITER33 FLOAT
 -7.609071e+89  8.183126e+89  0 
 -8.292673e+89  4.859693e+88  0 
 -5.374872e+89  7.813132e+89  0 
 -2.710408e+89  3.913403e+89  0 
 -2.389057e+89  4.220643e+89  0 
 -2.843739e+89  1.416445e+89  0 
 -3.264477e+89  1.411217e+89  0 
 -4.892859e+89  7.633235e+88  0 
 -2.831532e+89  2.391994e+89  0 
 -1.620080e+89  2.044987e+89  0 
 -3.511851e+89  5.775915e+88  0 
 -2.285959e+89  5.015035e+88  0 
VECTORS displacement_ITER34 FLOAT
 -7.609071e+89  8.183126e+89  0 
 -8.292673e+89  4.859693e+88  0 
 -5.374872e+89  7.813132e+89  0 
 -2.710408e+89  3.913403e+89  0 
 -2.389057e+89  4.220643e+89  0 
 -2.843739e+89  1.416445e+89  0 
 -3.264477e+89  1.411217e+89  0 
 -4.892859e+89  7.633235e+88  0 
 -2.831532e+89  2.391994e+89  0 
 -1.620080e+89  2.044987e+89  0 
 -3.511851e+89  5.775915e+88  0 
 -2.285959e+89  5.015035e+88  0 
VECTORS displacement_ITER35 FLOAT
 -7.609071e+89  8.183126e+89  0 
 -8.292673e+89  4.859693e+88  0 
 -5.374872e+89  7.813132e+89  0 
 -2.710408e+89  3.913403e+89  0 
 -2.389057e+89  4.220643e+89  0 
 -2.843739e+89  1.416445e+89  0 
 -3.264477e+89  1.411217e+89  0 
 -4.892859e+89  7.633235e+88  0 
 -2.831532e+89  2.391994e+89  0 
 -1.620080e+89  2.044987e+89  0 
 -3.511851e+89  5.775915e+88  0 
 -2.285959e+89  5.015035e+88  0 
VECTORS displacement_ITER36 FLOAT
 -7.609071e+89  8.183126e+89  0 
 -8.292673e+89  4.859693e+88  0 
 -5.374872e+89  7.813132e+89  0 
 -2.710408e+89  3.913403e+89  0 
 -2.389057e+89  4.220643e+89  0 
 -2.843739e+89  1.416445e+89  0 
 -3.264477e+89  1.411217e+89  0 
 -4.892859e+89  7.633235e+88  0 
 -2.831532e+89  2.391994e+89  0 
 -1.620080e+89  2.044987e+89  0 
 -3.511851e+89  5.775915e+88  0 
 -2.285959e+89  5.015035e+88  0 
VECTORS displacement_ITER37 FLOAT
 -7.609071e+89  8.183126e+89  0 
 -8.292673e+89  4.859693e+88  0 
 -5.374872e+89  7.813132e+89  0 
 -2.710408e+89  3.913403e+89  0 
 -2.389057e+89  4.220643e+89  0 
 -2.843739e+89  1.416445e+89  0 
 -3.264477e+89  1.411217e+89  0 
 -4.892859e+89  7.633235e+88  0 
 -2.831532e+89  2.391994e+89  0 
 -1.620080e+89  2.044987e+89  0 
 -3.511851e+89  5.775915e+88  0 
 -2.285959e+89  5.015035e+88  0 
VECTORS displacement_ITER38 FLOAT
 -7.609071e+89  8.183126e+89  0 
 -8.292673e+89  4.859693e+88  0 
 -5.374872e+89  7.813132e+89  0 
 -2.710408e+89  3.913403e+89  0 
 -2.389057e+89  4.220643e+89  0 
 -2.843739e+89  1.416445e+89  0 
 -3.264477e+89  1.411217e+89  0 
 -4.892859e+89  7.633235e+88  0 
 -2.831532e+89  2.391994e+89  0 
 -1.620080e+89  2.044987e+89  0 
 -3.511851e+89  5.775915e+88  0 
 -2.285959e+89  5.015035e+88  0 
VECTORS displacement_ITER39 FLOAT
 -7.609071e+89  8.183126e+89  0 
 -8.292673e+89  4.859693e+88  0 
 -5.374872e+89  7.813132e+89  0 
 -2.710408e+89  3.913403e+89  0 
 -2.389057e+89  4.220643e+89  0 
 -2.843739e+89  1.416445e+89  0 
 -3.264477e+89  1.411217e+89  0 
 -4.892859e+89  7.633235e+88  0 
 -2.831532e+89  2.391994e+89  0 
 -1.620080e+89  2.044987e+89  0 
 -3.511851e+89  5.775915e+88  0 
 -2.285959e+89  5.015035e+88  0 
VECTORS displacement_ITER40 FLOAT
 -7.609071e+89  8.183126e+89  0 
 -8.292673e+89  4.859693e+88  0 
 -5.374872e+89  7.813132e+89  0 
 -2.710408e+89  3.913403e+89  0 
 -2.389057e+89  4.220643e+89  0 
 -2.843739e+89  1.416445e+89  0 
 -3.264477e+89  1.411217e+89  0 
 -4.892859e+89  7.633235e+88  0 
 -2.831532e+89  2.391994e+89  0 
 -1.620080e+89  2.044987e+89  0 
 -3.511851e+89  5.775915e+88  0 
 -2.285959e+89  5.015035e+88  0 
VECTORS displacement_ITER41 FLOAT
 -7.609071e+89  8.183126e+89  0 
 -8.292673e+89  4.859693e+88  0 
 -5.374872e+89  7.813132e+89  0 
 -2.710408e+89  3.913403e+89  0 
 -2.389057e+89  4.220643e+89  0 
 -2.843739e+89  1.416445e+89  0 
 -3.264477e+89  1.411217e+89  0 
 -4.892859e+89  7.633235e+88  0 
 -2.831532e+89  2.391994e+89  0 
 -1.620080e+89  2.044987e+89  0 
 -3.511851e+89  5.775915e+88  0 
 -2.285959e+89  5.015035e+88  0 
VECTORS displacement_ITER42 FLOAT
 -7.609071e+89  8.183126e+89  0 
 -8.292673e+89  4.859693e+88  0 
 -5.374872e+89  7.813132e+89  0 
 -2.710408e+89  3.913403e+89  0 
 -2.389057e+89  4.220643e+89  0 
 -2.843739e+89  1.416445e+89  0 
 -3.264477e+89  1.411217e+89  0 
 -4.892859e+89  7.633235e+88  0 
 -2.831532e+89  2.391994e+89  0 
 -1.620080e+89  2.044987e+89  0 
 -3.511851e+89  5.775915e+88  0 
 -2.285959e+89  5.015035e+88  0 
VECTORS displacement_ITER43 FLOAT
 -7.609071e+89  8.183126e+89  0 
 -8.292673e+89  4.859693e+88  0 
 -5.374872e+89  7.813132e+89  0 
 -2.710408e+89  3.913403e+89  0 
 -2.389057e+89  4.220643e+89  0 
 -2.843739e+89  1.416445e+89  0 
 -3.264477e+89  1.411217e+89  0 
 -4.892859e+89  7.633235e+88  0 
 -2.831532e+89  2.391994e+89  0 
 -1.620080e+89  2.044987e+89  0 
 -3.511851e+89  5.775915e+88  0 
 -2.285959e+89  5.015035e+88  0 
VECTORS displacement_ITER44 FLOAT
 -7.609071e+89  8.183126e+89  0 
 -8.292673e+89  4.859693e+88  0 
 -5.374872e+89  7.813132e+89  0 
 -2.710408e+89  3.913403e+89  0 
 -2.389057e+89  4.220643e+89  0 
 -2.843739e+89  1.416445e+89  0 
 -3.264477e+89  1.411217e+89  0 
 -4.892859e+89  7.633235e+88  0 
 -2.831532e+89  2.391994e+89  0 
 -1.620080e+89  2.044987e+89  0 
 -3.511851e+89  5.775915e+88  0 
 -2.285959e+89  5.015035e+88  0 
VECTORS displacement_ITER45 FLOAT
 -7.609071e+89  8.183126e+89  0 
 -8.292673e+89  4.859693e+88  0 
 -5.374872e+89  7.813132e+89  0 
 -2.710408e+89  3.913403e+89  0 
 -2.389057e+89  4.220643e+89  0 
 -2.843739e+89  1.416445e+89  0 
 -3.264477e+89  1.411217e+89  0 
 -4.892859e+89  7.633235e+88  0 
 -2.831532e+89  2.391994e+89  0 
 -1.620080e+89  2.044987e+89  0 
 -3.511851e+89  5.775915e+88  0 
 -2.285959e+89  5.015035e+88  0 
VECTORS displacement_ITER46 FLOAT
 -7.609071e+89  8.183126e+89  0 
 -8.292673e+89  4.859693e+88  0 
 -5.374872e+89  7.813132e+89  0 
 -2.710408e+89  3.913403e+89  0 
 -2.389057e+89  4.220643e+89  0 
 -2.843739e+89  1.416445e+89  0 
 -3.264477e+89  1.411217e+89  0 
 -4.892859e+89  7.633235e+88  0 
 -2.831532e+89  2.391994e+89  0 
 -1.620080e+89  2.044987e+89  0 
 -3.511851e+89  5.775915e+88  0 
 -2.285959e+89  5.015035e+88  0 
VECTORS displacement_ITER47 FLOAT
 -7.609071e+89  8.183126e+89  0 
 -8.292673e+89  4.859693e+88  0 
 -5.374872e+89  7.813132e+89  0 
 -2.710408e+89  3.913403e+89  0 
 -2.389057e+89  4.220643e+89  0 
 -2.843739e+89  1.416445e+89  0 
 -3.264477e+89  1.411217e+89  0 
 -4.892859e+89  7.633235e+88  0 
 -2.831532e+89  2.391994e+89  0 
 -1.620080e+89  2.044987e+89  0 
 -3.511851e+89  5.775915e+88  0 
 -2.285959e+89  5.015035e+88  0 
VECTORS displacement_ITER48 FLOAT
 -7.609071e+89  8.183126e+89  0 
 -8.292673e+89  4.859693e+88  0 
 -5.374872e+89  7.813132e+89  0 
 -2.710408e+89  3.913403e+89  0 
 -2.389057e+89  4.220643e+89  0 
 -2.843739e+89  1.416445e+89  0 
 -3.264477e+89  1.411217e+89  0 
 -4.892859e+89  7.633235e+88  0 
 -2.831532e+89  2.391994e+89  0 
 -1.620080e+89  2.044987e+89  0 
 -3.511851e+89  5.775915e+88  0 
 -2.285959e+89  5.015035e+88  0 
VECTORS displacement_ITER49 FLOAT
 -7.609071e+89  8.183126e+89  0 
 -8.292673e+89  4.859693e+88  0 
 -5.374872e+89  7.813132e+89  0 
 -2.710408e+89  3.913403e+89  0 
 -2.389057e+89  4.220643e+89  0 
 -2.843739e+89  1.416445e+89  0 
 -3.264477e+89  1.411217e+89  0 
 -4.892859e+89  7.633235e+88  0 
 -2.831532e+89  2.391994e+89  0 
 -1.620080e+89  2.044987e+89  0 
 -3.511851e+89  5.775915e+88  0 
 -2.285959e+89  5.015035e+88  0 
VECTORS displacement_ITER50 FLOAT
 -7.609071e+89  8.183126e+89  0 
 -8.292673e+89  4.859693e+88  0 
 -5.374872e+89  7.813132e+89  0 
 -2.710408e+89  3.913403e+89  0 
 -2.389057e+89  4.220643e+89  0 
 -2.843739e+89  1.416445e+89  0 
 -3.264477e+89  1.411217e+89  0 
 -4.892859e+89  7.633235e+88  0 
 -2.831532e+89  2.391994e+89  0 
 -1.620080e+89  2.044987e+89  0 
 -3.511851e+89  5.775915e+88  0 
 -2.285959e+89  5.015035e+88  0 
VECTORS displacement_ITER51 FLOAT
 -7.609071e+89  8.183126e+89  0 
 -8.292673e+89  4.859693e+88  0 
 -5.374872e+89  7.813132e+89  0 
 -2.710408e+89  3.913403e+89  0 
 -2.389057e+89  4.220643e+89  0 
 -2.843739e+89  1.416445e+89  0 
 -3.264477e+89  1.411217e+89  0 
 -4.892859e+89  7.633235e+88  0 
 -2.831532e+89  2.391994e+89  0 
 -1.620080e+89  2.044987e+89  0 
 -3.511851e+89  5.775915e+88  0 
 -2.285959e+89  5.015035e+88  0 
VECTORS displacement_ITER52 FLOAT
 -7.609071e+89  8.183126e+89  0 
 -8.292673e+89  4.859693e+88  0 
 -5.374872e+89  7.813132e+89  0 
 -2.710408e+89  3.913403e+89  0 
 -2.389057e+89  4.220643e+89  0 
 -2.843739e+89  1.416445e+89  0 
 -3.264477e+89  1.411217e+89  0 
 -4.892859e+89  7.633235e+88  0 
 -2.831532e+89  2.391994e+89  0 
 -1.620080e+89  2.044987e+89  0 
 -3.511851e+89  5.775915e+88  0 
 -2.285959e+89  5.015035e+88  0 
VECTORS displacement_ITER53 FLOAT
 -7.609071e+89  8.183126e+89  0 
 -8.292673e+89  4.859693e+88  0 
 -5.374872e+89  7.813132e+89  0 
 -2.710408e+89  3.913403e+89  0 
 -2.389057e+89  4.220643e+89  0 
 -2.843739e+89  1.416445e+89  0 
 -3.264477e+89  1.411217e+89  0 
 -4.892859e+89  7.633235e+88  0 
 -2.831532e+89  2.391994e+89  0 
 -1.620080e+89  2.044987e+89  0 
 -3.511851e+89  5.775915e+88  0 
 -2.285959e+89  5.015035e+88  0 
VECTORS displacement_ITER54 FLOAT
 -7.609071e+89  8.183126e+89  0 
 -8.292673e+89  4.859693e+88  0 
 -5.374872e+89  7.813132e+89  0 
 -2.710408e+89  3.913403e+89  0 
 -2.389057e+89  4.220643e+89  0 
 -2.843739e+89  1.416445e+89  0 
 -3.264477e+89  1.411217e+89  0 
 -4.892859e+89  7.633235e+88  0 
 -2.831532e+89  2.391994e+89  0 
 -1.620080e+89  2.044987e+89  0 
 -3.511851e+89  5.775915e+88  0 
 -2.285959e+89  5.015035e+88  0 
VECTORS displacement_ITER55 FLOAT
 -7.609071e+89  8.183126e+89  0 
 -8.292673e+89  4.859693e+88  0 
 -5.374872e+89  7.813132e+89  0 
 -2.710408e+89  3.913403e+89  0 
 -2.389057e+89  4.220643e+89  0 
 -2.843739e+89  1.416445e+89  0 
 -3.264477e+89  1.411217e+89  0 
 -4.892859e+89  7.633235e+88  0 
 -2.831532e+89  2.391994e+89  0 
 -1.620080e+89  2.044987e+89  0 
 -3.511851e+89  5.775915e+88  0 
 -2.285959e+89  5.015035e+88  0 
VECTORS displacement_ITER56 FLOAT
 -7.609071e+89  8.183126e+89  0 
 -8.292673e+89  4.859693e+88  0 
 -5.374872e+89  7.813132e+89  0 
 -2.710408e+89  3.913403e+89  0 
 -2.389057e+89  4.220643e+89  0 
 -2.843739e+89  1.416445e+89  0 
 -3.264477e+89  1.411217e+89  0 
 -4.892859e+89  7.633235e+88  0 
 -2.831532e+89  2.391994e+89  0 
 -1.620080e+89  2.044987e+89  0 
 -3.511851e+89  5.775915e+88  0 
 -2.285959e+89  5.015035e+88  0 
VECTORS displacement_ITER57 FLOAT
 -7.609071e+89  8.183126e+89  0 
 -8.292673e+89  4.859693e+88  0 
 -5.374872e+89  7.813132e+89  0 
 -2.710408e+89  3.913403e+89  0 
 -2.389057e+89  4.220643e+89  0 
 -2.843739e+89  1.416445e+89  0 
 -3.264477e+89  1.411217e+89  0 
 -4.892859e+89  7.633235e+88  0 
 -2.831532e+89  2.391994e+89  0 
 -1.620080e+89  2.044987e+89  0 
 -3.511851e+89  5.775915e+88  0 
 -2.285959e+89  5.015035e+88  0 
VECTORS displacement_ITER58 FLOAT
 -7.609071e+89  8.183126e+89  0 
 -8.292673e+89  4.859693e+88  0 
 -5.374872e+89  7.813132e+89  0 
 -2.710408e+89  3.913403e+89  0 
 -2.389057e+89  4.220643e+89  0 
 -2.843739e+89  1.416445e+89  0 
 -3.264477e+89  1.411217e+89  0 
 -4.892859e+89  7.633235e+88  0 
 -2.831532e+89  2.391994e+89  0 
 -1.620080e+89  2.044987e+89  0 
 -3.511851e+89  5.775915e+88  0 
 -2.285959e+89  5.015035e+88  0 
VECTORS displacement_ITER59 FLOAT
 -7.609071e+89  8.183126e+89  0 
 -8.292673e+89  4.859693e+88  0 
 -5.374872e+89  7.813132e+89  0 
 -2.710408e+89  3.913403e+89  0 
 -2.389057e+89  4.220643e+89  0 
 -2.843739e+89  1.416445e+89  0 
 -3.264477e+89  1.411217e+89  0 
 -4.892859e+89  7.633235e+88  0 
 -2.831532e+89  2.391994e+89  0 
 -1.620080e+89  2.044987e+89  0 
 -3.511851e+89  5.775915e+88  0 
 -2.285959e+89  5.015035e+88  0 
VECTORS displacement_ITER60 FLOAT
 -7.609071e+89  8.183126e+89  0 
 -8.292673e+89  4.859693e+88  0 
 -5.374872e+89  7.813132e+89  0 
 -2.710408e+89  3.913403e+89  0 
 -2.389057e+89  4.220643e+89  0 
 -2.843739e+89  1.416445e+89  0 
 -3.264477e+89  1.411217e+89  0 
 -4.892859e+89  7.633235e+88  0 
 -2.831532e+89  2.391994e+89  0 
 -1.620080e+89  2.044987e+89  0 
 -3.511851e+89  5.775915e+88  0 
 -2.285959e+89  5.015035e+88  0 
VECTORS displacement_ITER61 FLOAT
 -7.609071e+89  8.183126e+89  0 
 -8.292673e+89  4.859693e+88  0 
 -5.374872e+89  7.813132e+89  0 
 -2.710408e+89  3.913403e+89  0 
 -2.389057e+89  4.220643e+89  0 
 -2.843739e+89  1.416445e+89  0 
 -3.264477e+89  1.411217e+89  0 
 -4.892859e+89  7.633235e+88  0 
 -2.831532e+89  2.391994e+89  0 
 -1.620080e+89  2.044987e+89  0 
 -3.511851e+89  5.775915e+88  0 
 -2.285959e+89  5.015035e+88  0 
VECTORS displacement_ITER62 FLOAT
 -7.609071e+89  8.183126e+89  0 
 -8.292673e+89  4.859693e+88  0 
 -5.374872e+89  7.813132e+89  0 
 -2.710408e+89  3.913403e+89  0 
 -2.389057e+89  4.220643e+89  0 
 -2.843739e+89  1.416445e+89  0 
 -3.264477e+89  1.411217e+89  0 
 -4.892859e+89  7.633235e+88  0 
 -2.831532e+89  2.391994e+89  0 
 -1.620080e+89  2.044987e+89  0 
 -3.511851e+89  5.775915e+88  0 
 -2.285959e+89  5.015035e+88  0 
VECTORS displacement_ITER63 FLOAT
 -7.609071e+89  8.183126e+89  0 
 -8.292673e+89  4.859693e+88  0 
 -5.374872e+89  7.813132e+89  0 
 -2.710408e+89  3.913403e+89  0 
 -2.389057e+89  4.220643e+89  0 
 -2.843739e+89  1.416445e+89  0 
 -3.264477e+89  1.411217e+89  0 
 -4.892859e+89  7.633235e+88  0 
 -2.831532e+89  2.391994e+89  0 
 -1.620080e+89  2.044987e+89  0 
 -3.511851e+89  5.775915e+88  0 
 -2.285959e+89  5.015035e+88  0 
VECTORS displacement_ITER64 FLOAT
 -7.609071e+89  8.183126e+89  0 
 -8.292673e+89  4.859693e+88  0 
 -5.374872e+89  7.813132e+89  0 
 -2.710408e+89  3.913403e+89  0 
 -2.389057e+89  4.220643e+89  0 
 -2.843739e+89  1.416445e+89  0 
 -3.264477e+89  1.411217e+89  0 
 -4.892859e+89  7.633235e+88  0 
 -2.831532e+89  2.391994e+89  0 
 -1.620080e+89  2.044987e+89  0 
 -3.511851e+89  5.775915e+88  0 
 -2.285959e+89  5.015035e+88  0 
VECTORS displacement_ITER65 FLOAT
 -7.609071e+89  8.183126e+89  0 
 -8.292673e+89  4.859693e+88  0 
 -5.374872e+89  7.813132e+89  0 
 -2.710408e+89  3.913403e+89  0 
 -2.389057e+89  4.220643e+89  0 
 -2.843739e+89  1.416445e+89  0 
 -3.264477e+89  1.411217e+89  0 
 -4.892859e+89  7.633235e+88  0 
 -2.831532e+89  2.391994e+89  0 
 -1.620080e+89  2.044987e+89  0 
 -3.511851e+89  5.775915e+88  0 
 -2.285959e+89  5.015035e+88  0 
VECTORS displacement_ITER66 FLOAT
 -7.609071e+89  8.183126e+89  0 
 -8.292673e+89  4.859693e+88  0 
 -5.374872e+89  7.813132e+89  0 
 -2.710408e+89  3.913403e+89  0 
 -2.389057e+89  4.220643e+89  0 
 -2.843739e+89  1.416445e+89  0 
 -3.264477e+89  1.411217e+89  0 
 -4.892859e+89  7.633235e+88  0 
 -2.831532e+89  2.391994e+89  0 
 -1.620080e+89  2.044987e+89  0 
 -3.511851e+89  5.775915e+88  0 
 -2.285959e+89  5.015035e+88  0 
VECTORS displacement_ITER67 FLOAT
 -7.609071e+89  8.183126e+89  0 
 -8.292673e+89  4.859693e+88  0 
 -5.374872e+89  7.813132e+89  0 
 -2.710408e+89  3.913403e+89  0 
 -2.389057e+89  4.220643e+89  0 
 -2.843739e+89  1.416445e+89  0 
 -3.264477e+89  1.411217e+89  0 
 -4.892859e+89  7.633235e+88  0 
 -2.831532e+89  2.391994e+89  0 
 -1.620080e+89  2.044987e+89  0 
 -3.511851e+89  5.775915e+88  0 
 -2.285959e+89  5.015035e+88  0 
VECTORS displacement_ITER68 FLOAT
 -7.609071e+89  8.183126e+89  0 
 -8.292673e+89  4.859693e+88  0 
 -5.374872e+89  7.813132e+89  0 
 -2.710408e+89  3.913403e+89  0 
 -2.389057e+89  4.220643e+89  0 
 -2.843739e+89  1.416445e+89  0 
 -3.264477e+89  1.411217e+89  0 
 -4.892859e+89  7.633235e+88  0 
 -2.831532e+89  2.391994e+89  0 
 -1.620080e+89  2.044987e+89  0 
 -3.511851e+89  5.775915e+88  0 
 -2.285959e+89  5.015035e+88  0 
VECTORS displacement_ITER69 FLOAT
 -7.609071e+89  8.183126e+89  0 
 -8.292673e+89  4.859693e+88  0 
 -5.374872e+89  7.813132e+89  0 
 -2.710408e+89  3.913403e+89  0 