# vtk DataFile Version 3.1
this is an vtk file created by FEMAC
ASCII
DATASET UNSTRUCTURED_GRID
POINTS 8 FLOAT
0.000000 0.000000 0.000000
0.000000 1.000000 0.000000
2.000000 0.000000 0.000000
2.000000 1.000000 0.000000
1.000000 0.000000 0.000000
1.000000 1.000000 0.000000
1.500000 0.500000 0.000000
0.500000 0.500000 0.000000
CELLS 8 32 
3 6 2 4
3 6 5 3
3 5 6 4
3 2 6 3
3 0 7 4
3 5 7 1
3 7 5 4
3 7 0 1
CELL_TYPES 8
5 5 5 5 5 5 5 5 
POINT_DATA 8
SCALARS CONDID_1 FLOAT
LOOKUP_TABLE default
 1 
 0 
 0 
 0 
 0 
 0 
 0 
 0 
SCALARS CONDID_2 FLOAT
LOOKUP_TABLE default
 1 
 1 
 0 
 0 
 0 
 0 
 0 
 0 
SCALARS CONDID_3 FLOAT
LOOKUP_TABLE default
 0 
 0 
 1 
 1 
 0 
 0 
 0 
 0 
VECTORS displacement FLOAT
 0  0  0 
 0  6.500000e-04  0 
 -1.300000e-03  -3.848918e-18  0 
 -1.300000e-03  6.500000e-04  0 
 -6.500000e-04  -4.336809e-19  0 
 -6.500000e-04  6.500000e-04  0 
 -9.750000e-04  3.250000e-04  0 
 -3.250000e-04  3.250000e-04  0 
CELL_DATA 8
SCALARS MATID_1 FLOAT
LOOKUP_TABLE default
 1 
 1 
 1 
 1 
 1 
 1 
 1 
 1 
SCALARS SUB_ID FLOAT
LOOKUP_TABLE default
 2 
 2 
 2 
 2 
 1 
 1 
 1 
 1 
VECTORS SubCenter_Diff FLOAT
 5.000000e-01  0  0 
 5.000000e-01  0  0 
 5.000000e-01  0  0 
 5.000000e-01  0  0 
 -5.000000e-01  0  0 
 -5.000000e-01  0  0 
 -5.000000e-01  0  0 
 -5.000000e-01  0  0 
