# vtk DataFile Version 3.1
this is an vtk file created by FEMAC
ASCII
DATASET UNSTRUCTURED_GRID
POINTS 45 FLOAT
0.000000 0.000000 0.000000
8.000000 0.000000 0.000000
0.000000 1.500000 0.000000
8.000000 1.500000 0.000000
1.000000 0.000000 0.000000
2.000000 0.000000 0.000000
3.000000 0.000000 0.000000
4.000000 0.000000 0.000000
5.000000 0.000000 0.000000
6.000000 0.000000 0.000000
7.000000 0.000000 0.000000
1.000000 1.500000 0.000000
2.000000 1.500000 0.000000
3.000000 1.500000 0.000000
4.000000 1.500000 0.000000
5.000000 1.500000 0.000000
6.000000 1.500000 0.000000
7.000000 1.500000 0.000000
0.000000 0.375000 0.000000
0.000000 0.750000 0.000000
0.000000 1.125000 0.000000
8.000000 0.375000 0.000000
8.000000 0.750000 0.000000
8.000000 1.125000 0.000000
1.000000 0.375000 0.000000
1.000000 0.750000 0.000000
1.000000 1.125000 0.000000
2.000000 0.375000 0.000000
2.000000 0.750000 0.000000
2.000000 1.125000 0.000000
3.000000 0.375000 0.000000
3.000000 0.750000 0.000000
3.000000 1.125000 0.000000
4.000000 0.375000 0.000000
4.000000 0.750000 0.000000
4.000000 1.125000 0.000000
5.000000 0.375000 0.000000
5.000000 0.750000 0.000000
5.000000 1.125000 0.000000
6.000000 0.375000 0.000000
6.000000 0.750000 0.000000
6.000000 1.125000 0.000000
7.000000 0.375000 0.000000
7.000000 0.750000 0.000000
7.000000 1.125000 0.000000
CELLS 32 160 
4 0  4 24 18
4 18 24 25 19
4 19 25 26 20
4 20 26 11  2
4 4  5 27 24
4 24 27 28 25
4 25 28 29 26
4 26 29 12 11
4 5  6 30 27
4 27 30 31 28
4 28 31 32 29
4 29 32 13 12
4 6  7 33 30
4 30 33 34 31
4 31 34 35 32
4 32 35 14 13
4 7  8 36 33
4 33 36 37 34
4 34 37 38 35
4 35 38 15 14
4 8  9 39 36
4 36 39 40 37
4 37 40 41 38
4 38 41 16 15
4 9 10 42 39
4 39 42 43 40
4 40 43 44 41
4 41 44 17 16
4 10  1 21 42
4 42 21 22 43
4 43 22 23 44
4 44 23  3 17
CELL_TYPES 32
9 9 9 9 9 9 9 9 9 9 9 9 9 9 9 9 9 9 9 9 9 9 9 9 9 9 9 9 9 9 9 9 
POINT_DATA 45
SCALARS CONDID_1 FLOAT
LOOKUP_TABLE default
 1 
 0 
 0 
 0 
 0 
 0 
 0 
 0 
 0 
 0 
 0 
 0 
 0 
 0 
 0 
 0 
 0 
 0 
 0 
 0 
 0 
 0 
 0 
 0 
 0 
 0 
 0 
 0 
 0 
 0 
 0 
 0 
 0 
 0 
 0 
 0 
 0 
 0 
 0 
 0 
 0 
 0 
 0 
 0 
 0 
SCALARS CONDID_2 FLOAT
LOOKUP_TABLE default
 1 
 0 
 1 
 0 
 0 
 0 
 0 
 0 
 0 
 0 
 0 
 0 
 0 
 0 
 0 
 0 
 0 
 0 
 1 
 1 
 1 
 0 
 0 
 0 
 0 
 0 
 0 
 0 
 0 
 0 
 0 
 0 
 0 
 0 
 0 
 0 
 0 
 0 
 0 
 0 
 0 
 0 
 0 
 0 
 0 
SCALARS CONDID_3 FLOAT
LOOKUP_TABLE default
 0 
 1 
 0 
 1 
 0 
 0 
 0 
 0 
 0 
 0 
 0 
 0 
 0 
 0 
 0 
 0 
 0 
 0 
 0 
 0 
 0 
 1 
 1 
 1 
 0 
 0 
 0 
 0 
 0 
 0 
 0 
 0 
 0 
 0 
 0 
 0 
 0 
 0 
 0 
 0 
 0 
 0 
 0 
 0 
 0 
VECTORS displacement FLOAT
 0  0  0 
 4.000000e-02  3.502998e-09  0 
 0  0  0 
 4.000000e-02  -3.502993e-09  0 
 5.000000e-03  3.468124e-10  0 
 1.000001e-02  -1.693049e-08  0 
 1.499999e-02  1.010799e-08  0 
 1.999999e-02  1.195555e-08  0 
 2.499999e-02  -3.289718e-09  0 
 2.999999e-02  1.081984e-08  0 
 3.500000e-02  -7.364648e-09  0 
 5.000000e-03  -3.468123e-10  0 
 1.000001e-02  1.693049e-08  0 
 1.499999e-02  -1.010798e-08  0 
 1.999999e-02  -1.195554e-08  0 
 2.499999e-02  3.289721e-09  0 
 2.999999e-02  -1.081983e-08  0 
 3.500000e-02  7.364652e-09  0 
 0  0  0 
 0  0  0 
 0  0  0 
 4.000000e-02  7.737998e-10  0 
 4.000000e-02  2.543298e-15  0 
 4.000000e-02  -7.737946e-10  0 
 5.000000e-03  4.093763e-09  0 
 4.999999e-03  9.980218e-17  0 
 5.000000e-03  -4.093763e-09  0 
 9.999995e-03  3.902637e-09  0 
 9.999985e-03  3.160991e-16  0 
 9.999995e-03  -3.902636e-09  0 
 1.499999e-02  2.843957e-09  0 
 1.500000e-02  6.890240e-16  0 
 1.499999e-02  -2.843956e-09  0 
 1.999999e-02  1.080249e-08  0 
 2.000000e-02  1.057872e-15  0 
 1.999999e-02  -1.080248e-08  0 
 2.500000e-02  -6.217244e-09  0 
 2.499999e-02  1.465486e-15  0 
 2.500000e-02  6.217247e-09  0 
 3.000000e-02  -6.876274e-09  0 
 3.000000e-02  1.856601e-15  0 
 3.000000e-02  6.876278e-09  0 
 3.500000e-02  -1.444386e-09  0 
 3.500000e-02  2.222995e-15  0 
 3.500000e-02  1.444390e-09  0 
CELL_DATA 32
SCALARS MATID_1 FLOAT
LOOKUP_TABLE default
 1 
 1 
 1 
 1 
 1 
 1 
 1 
 1 
 1 
 1 
 1 
 1 
 1 
 1 
 1 
 1 
 1 
 1 
 1 
 1 
 1 
 1 
 1 
 1 
 1 
 1 
 1 
 1 
 1 
 1 
 1 
 1 
SCALARS SUB_ID FLOAT
LOOKUP_TABLE default
 1 
 1 
 1 
 1 
 1 
 1 
 1 
 1 
 2 
 2 
 2 
 2 
 2 
 2 
 2 
 2 
 3 
 3 
 3 
 3 
 3 
 3 
 3 
 3 
 4 
 4 
 4 
 4 
 4 
 4 
 4 
 4 
VECTORS SubCenter_Diff FLOAT
 -3.000000e+00  0  0 
 -3.000000e+00  0  0 
 -3.000000e+00  0  0 
 -3.000000e+00  0  0 
 -3.000000e+00  0  0 
 -3.000000e+00  0  0 
 -3.000000e+00  0  0 
 -3.000000e+00  0  0 
 -1.000000e+00  0  0 
 -1.000000e+00  0  0 
 -1.000000e+00  0  0 
 -1.000000e+00  0  0 
 -1.000000e+00  0  0 
 -1.000000e+00  0  0 
 -1.000000e+00  0  0 
 -1.000000e+00  0  0 
 1.000000e+00  0  0 
 1.000000e+00  0  0 
 1.000000e+00  0  0 
 1.000000e+00  0  0 
 1.000000e+00  0  0 
 1.000000e+00  0  0 
 1.000000e+00  0  0 
 1.000000e+00  0  0 
 3.000000e+00  0  0 
 3.000000e+00  0  0 
 3.000000e+00  0  0 
 3.000000e+00  0  0 
 3.000000e+00  0  0 
 3.000000e+00  0  0 
 3.000000e+00  0  0 
 3.000000e+00  0  0 
