# vtk DataFile Version 3.1
this is an vtk file created by FEMAC
ASCII
DATASET UNSTRUCTURED_GRID
POINTS 15 FLOAT
0.000000 0.000000 0.000000
0.000000 1.500000 0.000000
1.000000 0.000000 0.000000
2.000000 0.000000 0.000000
1.000000 1.500000 0.000000
2.000000 1.500000 0.000000
0.000000 0.375000 0.000000
0.000000 0.750000 0.000000
0.000000 1.125000 0.000000
1.000000 0.375000 0.000000
1.000000 0.750000 0.000000
1.000000 1.125000 0.000000
2.000000 0.375000 0.000000
2.000000 0.750000 0.000000
2.000000 1.125000 0.000000
CELLS 8 40 
4 0 2 9 6
4 6  9 10  7
4 7 10 11  8
4 8 11  4  1
4 2  3 12  9
4 9 12 13 10
4 10 13 14 11
4 11 14  5  4
CELL_TYPES 8
9 9 9 9 9 9 9 9 
POINT_DATA 15
VECTORS displacement_ITER1 FLOAT
 0  0  0 
 0  0  0 
 5.002608e-03  -1.126366e-05  0 
 1.003797e-02  5.336511e-05  0 
 5.002608e-03  1.126366e-05  0 
 1.003797e-02  -5.336511e-05  0 
 0  0  0 
 0  0  0 
 0  0  0 
 5.000803e-03  -6.619167e-06  0 
 4.995785e-03  9.959141e-17  0 
 5.000803e-03  6.619167e-06  0 
 9.988350e-03  3.462380e-05  0 
 9.985329e-03  3.051317e-16  0 
 9.988350e-03  -3.462380e-05  0 
VECTORS displacement_ITER2 FLOAT
 0  0  0 
 0  0  0 
 4.999764e-03  8.673965e-08  0 
 9.998991e-03  -1.239016e-06  0 
 4.999764e-03  -8.673965e-08  0 
 9.998991e-03  1.239016e-06  0 
 0  0  0 
 0  0  0 
 0  0  0 
 5.000228e-03  3.894284e-07  0 
 4.999779e-03  1.006453e-16  0 
 5.000228e-03  -3.894284e-07  0 
 9.999170e-03  -1.791528e-06  0 
 1.000267e-02  3.044356e-16  0 
 9.999170e-03  1.791528e-06  0 
VECTORS displacement_ITER3 FLOAT
 0  0  0 
 0  0  0 
 5.000005e-03  -9.728485e-09  0 
 9.999973e-03  9.433485e-08  0 
 5.000005e-03  9.728485e-09  0 
 9.999973e-03  -9.433485e-08  0 
 0  0  0 
 0  0  0 
 0  0  0 
 5.000004e-03  2.348059e-08  0 
 4.999988e-03  9.938063e-17  0 
 5.000004e-03  -2.348059e-08  0 
 9.999969e-03  -5.404312e-08  0 
 1.000009e-02  3.051317e-16  0 
 9.999969e-03  5.404312e-08  0 
VECTORS displacement_ITER4 FLOAT
 0  0  0 
 0  0  0 
 5.000000e-03  3.468124e-10  0 
 9.999991e-03  5.202970e-09  0 
 5.000000e-03  -3.468123e-10  0 
 9.999991e-03  -5.202969e-09  0 
 0  0  0 
 0  0  0 
 0  0  0 
 5.000000e-03  4.093763e-09  0 
 4.999999e-03  9.980218e-17  0 
 5.000000e-03  -4.093763e-09  0 
 9.999999e-03  -1.270022e-08  0 
 1.000001e-02  3.065240e-16  0 
 9.999999e-03  1.270022e-08  0 
CELL_DATA 8
TENSORS element_stresses FLOAT
 1.000000e+00  3.824142e-07  0 
 3.824142e-07  9.991868e-07  0 
 0  0  0 

 1.000000e+00  2.482102e-07  0 
 2.482102e-07  -1.091670e-06  0 
 0  0  0 

 1.000000e+00  -2.482101e-07  0 
 -2.482101e-07  -1.091670e-06  0 
 0  0  0 

 1.000000e+00  -3.824142e-07  0 
 -3.824142e-07  9.991868e-07  0 
 0  0  0 

 9.999989e-01  9.179520e-07  0 
 9.179520e-07  -3.774996e-06  0 
 0  0  0 

 1.000001e+00  1.615537e-06  0 
 1.615537e-06  2.295054e-06  0 
 0  0  0 

 1.000001e+00  -1.615537e-06  0 
 -1.615537e-06  2.295054e-06  0 
 0  0  0 

 9.999989e-01  -9.179520e-07  0 
 -9.179520e-07  -3.774996e-06  0 
 0  0  0 

TENSORS element_stresses FLOAT
 1.000000e+00  3.824142e-07  0 
 3.824142e-07  9.991868e-07  0 
 0  0  0 

 1.000000e+00  2.482102e-07  0 
 2.482102e-07  -1.091670e-06  0 
 0  0  0 

 1.000000e+00  -2.482101e-07  0 
 -2.482101e-07  -1.091670e-06  0 
 0  0  0 

 1.000000e+00  -3.824142e-07  0 
 -3.824142e-07  9.991868e-07  0 
 0  0  0 

 9.999989e-01  9.179520e-07  0 
 9.179520e-07  -3.774996e-06  0 
 0  0  0 

 1.000001e+00  1.615537e-06  0 
 1.615537e-06  2.295054e-06  0 
 0  0  0 

 1.000001e+00  -1.615537e-06  0 
 -1.615537e-06  2.295054e-06  0 
 0  0  0 

 9.999989e-01  -9.179520e-07  0 
 -9.179520e-07  -3.774996e-06  0 
 0  0  0 

