# vtk DataFile Version 3.1
this is an vtk file created by FEMAC
ASCII
DATASET UNSTRUCTURED_GRID
POINTS 15 FLOAT
2.000000 0.000000 0.000000
3.000000 0.000000 0.000000
4.000000 0.000000 0.000000
2.000000 1.500000 0.000000
3.000000 1.500000 0.000000
4.000000 1.500000 0.000000
2.000000 0.375000 0.000000
2.000000 0.750000 0.000000
2.000000 1.125000 0.000000
3.000000 0.375000 0.000000
3.000000 0.750000 0.000000
3.000000 1.125000 0.000000
4.000000 0.375000 0.000000
4.000000 0.750000 0.000000
4.000000 1.125000 0.000000
CELLS 8 40 
4 0 1 9 6
4 6  9 10  7
4 7 10 11  8
4 8 11  4  3
4 1  2 12  9
4 9 12 13 10
4 10 13 14 11
4 11 14  5  4
CELL_TYPES 8
9 9 9 9 9 9 9 9 
POINT_DATA 15
VECTORS displacement_ITER1 FLOAT
 1.000191e-02  -2.534396e-05  0 
 1.501732e-02  5.856300e-06  0 
 1.997722e-02  -1.450308e-05  0 
 1.000191e-02  2.534396e-05  0 
 1.501732e-02  -5.856300e-06  0 
 1.997722e-02  1.450308e-05  0 
 1.001459e-02  -1.822667e-05  0 
 1.000497e-02  3.132802e-16  0 
 1.001459e-02  1.822667e-05  0 
 1.500725e-02  5.877956e-06  0 
 1.500424e-02  6.570265e-16  0 
 1.500725e-02  -5.877956e-06  0 
 2.000966e-02  -1.236788e-05  0 
 2.003953e-02  9.900392e-16  0 
 2.000966e-02  1.236788e-05  0 
VECTORS displacement_ITER2 FLOAT
 9.999893e-03  1.043170e-06  0 
 1.499928e-02  -3.302217e-07  0 
 2.000042e-02  -1.503146e-08  0 
 9.999893e-03  -1.043170e-06  0 
 1.499928e-02  3.302217e-07  0 
 2.000042e-02  1.503146e-08  0 
 1.000054e-02  8.164753e-07  0 
 9.998125e-03  3.145542e-16  0 
 1.000054e-02  -8.164753e-07  0 
 1.500010e-02  2.517068e-07  0 
 1.499962e-02  6.864219e-16  0 
 1.500010e-02  -2.517068e-07  0 
 1.999773e-02  -6.628977e-07  0 
 2.000323e-02  1.048044e-15  0 
 1.999773e-02  6.628977e-07  0 
VECTORS displacement_ITER3 FLOAT
 1.000002e-02  -1.438077e-07  0 
 1.500002e-02  -3.260839e-08  0 
 2.000018e-02  2.678325e-07  0 
 1.000002e-02  1.438077e-07  0 
 1.500002e-02  3.260840e-08  0 
 2.000018e-02  -2.678325e-07  0 
 1.000001e-02  2.807277e-09  0 
 9.999922e-03  3.163160e-16  0 
 1.000001e-02  -2.807276e-09  0 
 1.499998e-02  -4.474680e-08  0 
 1.499999e-02  7.042571e-16  0 
 1.499998e-02  4.474680e-08  0 
 1.999997e-02  1.945514e-07  0 
 1.999983e-02  1.080245e-15  0 
 1.999997e-02  -1.945514e-07  0 
VECTORS displacement_ITER4 FLOAT
 1.000001e-02  -1.693049e-08  0 
 1.499999e-02  1.010799e-08  0 
 1.999998e-02  -2.158728e-08  0 
 1.000001e-02  1.693049e-08  0 
 1.499999e-02  -1.010798e-08  0 
 1.999998e-02  2.158728e-08  0 
 9.999995e-03  3.902637e-09  0 
 9.999985e-03  3.160991e-16  0 
 9.999995e-03  -3.902636e-09  0 
 1.499999e-02  2.843957e-09  0 
 1.500000e-02  6.890240e-16  0 
 1.499999e-02  -2.843956e-09  0 
 2.000000e-02  -1.267138e-08  0 
 2.000000e-02  1.049887e-15  0 
 2.000000e-02  1.267139e-08  0 
CELL_DATA 8
TENSORS element_stresses FLOAT
 9.999986e-01  -4.076125e-07  0 
 -4.076125e-07  3.618426e-06  0 
 0  0  0 

 1.000001e+00  -1.310259e-06  0 
 -1.310259e-06  -1.799091e-06  0 
 0  0  0 

 1.000001e+00  1.310259e-06  0 
 1.310259e-06  -1.799091e-06  0 
 0  0  0 

 9.999986e-01  4.076125e-07  0 
 4.076125e-07  3.618426e-06  0 
 0  0  0 

 9.999996e-01  7.398009e-07  0 
 7.398009e-07  4.404977e-07  0 
 0  0  0 

 1.000000e+00  -1.887250e-06  0 
 -1.887250e-06  2.620648e-06  0 
 0  0  0 

 1.000000e+00  1.887250e-06  0 
 1.887250e-06  2.620648e-06  0 
 0  0  0 

 9.999996e-01  -7.398009e-07  0 
 -7.398009e-07  4.404977e-07  0 
 0  0  0 

TENSORS element_stresses FLOAT
 9.999986e-01  -4.076125e-07  0 
 -4.076125e-07  3.618426e-06  0 
 0  0  0 

 1.000001e+00  -1.310259e-06  0 
 -1.310259e-06  -1.799091e-06  0 
 0  0  0 

 1.000001e+00  1.310259e-06  0 
 1.310259e-06  -1.799091e-06  0 
 0  0  0 

 9.999986e-01  4.076125e-07  0 
 4.076125e-07  3.618426e-06  0 
 0  0  0 

 9.999996e-01  7.398009e-07  0 
 7.398009e-07  4.404977e-07  0 
 0  0  0 

 1.000000e+00  -1.887250e-06  0 
 -1.887250e-06  2.620648e-06  0 
 0  0  0 

 1.000000e+00  1.887250e-06  0 
 1.887250e-06  2.620648e-06  0 
 0  0  0 

 9.999996e-01  -7.398009e-07  0 
 -7.398009e-07  4.404977e-07  0 
 0  0  0 

