# vtk DataFile Version 3.1
this is an vtk file created by FEMAC
ASCII
DATASET UNSTRUCTURED_GRID
POINTS 15 FLOAT
4.000000 0.000000 0.000000
5.000000 0.000000 0.000000
6.000000 0.000000 0.000000
4.000000 1.500000 0.000000
5.000000 1.500000 0.000000
6.000000 1.500000 0.000000
4.000000 0.375000 0.000000
4.000000 0.750000 0.000000
4.000000 1.125000 0.000000
5.000000 0.375000 0.000000
5.000000 0.750000 0.000000
5.000000 1.125000 0.000000
6.000000 0.375000 0.000000
6.000000 0.750000 0.000000
6.000000 1.125000 0.000000
CELLS 8 40 
4 0 1 9 6
4 6  9 10  7
4 7 10 11  8
4 8 11  4  3
4 1  2 12  9
4 9 12 13 10
4 10 13 14 11
4 11 14  5  4
CELL_TYPES 8
9 9 9 9 9 9 9 9 
POINT_DATA 15
VECTORS displacement_ITER1 FLOAT
 2.002883e-02  -1.563818e-05  0 
 2.498886e-02  8.284696e-06  0 
 2.999679e-02  -2.584143e-05  0 
 2.002883e-02  1.563818e-05  0 
 2.498886e-02  -8.284696e-06  0 
 2.999679e-02  2.584143e-05  0 
 1.999536e-02  -1.315027e-05  0 
 1.996490e-02  9.927939e-16  0 
 1.999536e-02  1.315027e-05  0 
 2.499759e-02  7.585075e-06  0 
 2.500041e-02  1.363640e-15  0 
 2.499759e-02  -7.585075e-06  0 
 2.999183e-02  -1.863988e-05  0 
 3.000400e-02  1.708514e-15  0 
 2.999183e-02  1.863988e-05  0 
VECTORS displacement_ITER2 FLOAT
 1.999901e-02  1.132700e-06  0 
 2.500051e-02  -6.105509e-07  0 
 3.000055e-02  1.680290e-06  0 
 1.999901e-02  -1.132700e-06  0 
 2.500051e-02  6.105509e-07  0 
 3.000055e-02  -1.680290e-06  0 
 2.000226e-02  1.216897e-07  0 
 1.999698e-02  1.053898e-15  0 
 2.000226e-02  -1.216897e-07  0 
 2.499983e-02  7.697287e-08  0 
 2.500034e-02  1.457733e-15  0 
 2.499983e-02  -7.697286e-08  0 
 2.999923e-02  1.209856e-06  0 
 3.000150e-02  1.839273e-15  0 
 2.999923e-02  -1.209856e-06  0 
VECTORS displacement_ITER3 FLOAT
 1.999999e-02  -1.015041e-07  0 
 2.500004e-02  4.670818e-08  0 
 2.999986e-02  -3.584551e-07  0 
 1.999999e-02  1.015041e-07  0 
 2.500004e-02  -4.670818e-08  0 
 2.999986e-02  3.584551e-07  0 
 2.000003e-02  -5.268979e-08  0 
 2.000010e-02  1.089060e-15  0 
 2.000003e-02  5.268979e-08  0 
 2.500004e-02  5.750580e-09  0 
 2.500003e-02  1.517509e-15  0 
 2.500004e-02  -5.750577e-09  0 
 3.000006e-02  -1.456455e-07  0 
 3.000018e-02  1.924308e-15  0 
 3.000006e-02  1.456455e-07  0 
VECTORS displacement_ITER4 FLOAT
 1.999999e-02  1.195555e-08  0 
 2.499999e-02  -3.289718e-09  0 
 3.000001e-02  6.561871e-09  0 
 1.999999e-02  -1.195554e-08  0 
 2.499999e-02  3.289721e-09  0 
 3.000001e-02  -6.561867e-09  0 
 1.999999e-02  1.080249e-08  0 
 2.000000e-02  1.057872e-15  0 
 1.999999e-02  -1.080248e-08  0 
 2.500000e-02  -6.217244e-09  0 
 2.499999e-02  1.465486e-15  0 
 2.500000e-02  6.217247e-09  0 
 2.999999e-02  1.877313e-08  0 
 2.999998e-02  1.851542e-15  0 
 2.999999e-02  -1.877313e-08  0 
CELL_DATA 8
TENSORS element_stresses FLOAT
 1.000001e+00  -2.387447e-06  0 
 -2.387447e-06  -1.088156e-06  0 
 0  0  0 

 9.999995e-01  1.046210e-06  0 
 1.046210e-06  -1.222731e-06  0 
 0  0  0 

 9.999995e-01  -1.046210e-06  0 
 -1.046210e-06  -1.222731e-06  0 
 0  0  0 

 1.000001e+00  2.387447e-06  0 
 2.387447e-06  -1.088156e-06  0 
 0  0  0 

 1.000002e+00  -1.514624e-06  0 
 -1.514624e-06  2.475664e-06  0 
 0  0  0 

 9.999985e-01  1.315217e-07  0 
 1.315217e-07  -3.348237e-06  0 
 0  0  0 

 9.999985e-01  -1.315217e-07  0 
 -1.315217e-07  -3.348237e-06  0 
 0  0  0 

 1.000002e+00  1.514624e-06  0 
 1.514624e-06  2.475664e-06  0 
 0  0  0 

TENSORS element_stresses FLOAT
 1.000001e+00  -2.387447e-06  0 
 -2.387447e-06  -1.088156e-06  0 
 0  0  0 

 9.999995e-01  1.046210e-06  0 
 1.046210e-06  -1.222731e-06  0 
 0  0  0 

 9.999995e-01  -1.046210e-06  0 
 -1.046210e-06  -1.222731e-06  0 
 0  0  0 

 1.000001e+00  2.387447e-06  0 
 2.387447e-06  -1.088156e-06  0 
 0  0  0 

 1.000002e+00  -1.514624e-06  0 
 -1.514624e-06  2.475664e-06  0 
 0  0  0 

 9.999985e-01  1.315217e-07  0 
 1.315217e-07  -3.348237e-06  0 
 0  0  0 

 9.999985e-01  -1.315217e-07  0 
 -1.315217e-07  -3.348237e-06  0 
 0  0  0 

 1.000002e+00  1.514624e-06  0 
 1.514624e-06  2.475664e-06  0 
 0  0  0 

