# vtk DataFile Version 3.1
this is an vtk file created by FEMAC
ASCII
DATASET UNSTRUCTURED_GRID
POINTS 15 FLOAT
8.000000 0.000000 0.000000
8.000000 1.500000 0.000000
6.000000 0.000000 0.000000
7.000000 0.000000 0.000000
6.000000 1.500000 0.000000
7.000000 1.500000 0.000000
8.000000 0.375000 0.000000
8.000000 0.750000 0.000000
8.000000 1.125000 0.000000
6.000000 0.375000 0.000000
6.000000 0.750000 0.000000
6.000000 1.125000 0.000000
7.000000 0.375000 0.000000
7.000000 0.750000 0.000000
7.000000 1.125000 0.000000
CELLS 8 40 
4 2  3 12  9
4 9 12 13 10
4 10 13 14 11
4 11 14  5  4
4 3  0  6 12
4 12  6  7 13
4 13  7  8 14
4 14  8  1  5
CELL_TYPES 8
9 9 9 9 9 9 9 9 
POINT_DATA 15
VECTORS displacement_ITER1 FLOAT
 4.000638e-02  2.828204e-07  0 
 4.000638e-02  -2.828204e-07  0 
 2.997274e-02  4.517072e-05  0 
 3.499878e-02  -1.027166e-05  0 
 2.997274e-02  -4.517072e-05  0 
 3.499878e-02  1.027166e-05  0 
 4.000168e-02  -6.527524e-07  0 
 3.999874e-02  2.314301e-15  0 
 4.000168e-02  6.527524e-07  0 
 3.001211e-02  2.891066e-05  0 
 3.001154e-02  1.708697e-15  0 
 3.001211e-02  -2.891066e-05  0 
 3.500150e-02  -5.818953e-06  0 
 3.500670e-02  2.035510e-15  0 
 3.500150e-02  5.818953e-06  0 
VECTORS displacement_ITER2 FLOAT
 3.999978e-02  2.504356e-07  0 
 3.999978e-02  -2.504356e-07  0 
 3.000094e-02  -1.627715e-06  0 
 3.500042e-02  1.026358e-07  0 
 3.000094e-02  1.627715e-06  0 
 3.500042e-02  -1.026358e-07  0 
 4.000015e-02  -1.336785e-08  0 
 4.000003e-02  2.525676e-15  0 
 4.000015e-02  1.336786e-08  0 
 3.000091e-02  -2.041439e-06  0 
 2.999734e-02  1.842855e-15  0 
 3.000091e-02  2.041439e-06  0 
 3.499974e-02  4.307060e-07  0 
 3.500022e-02  2.204909e-15  0 
 3.499974e-02  -4.307060e-07  0 
VECTORS displacement_ITER3 FLOAT
 4.000000e-02  -1.617536e-08  0 
 4.000000e-02  1.617537e-08  0 
 3.000001e-02  2.633470e-07  0 
 3.499996e-02  -9.243027e-09  0 
 3.000001e-02  -2.633470e-07  0 
 3.499996e-02  9.243032e-09  0 
 4.000000e-02  -2.584281e-08  0 
 4.000000e-02  2.661120e-15  0 
 4.000000e-02  2.584282e-08  0 
 3.000002e-02  6.874847e-08  0 
 2.999994e-02  1.926285e-15  0 
 3.000002e-02  -6.874847e-08  0 
 3.500000e-02  2.504314e-08  0 
 3.500003e-02  2.316549e-15  0 
 3.500000e-02  -2.504314e-08  0 
VECTORS displacement_ITER4 FLOAT
 4.000000e-02  3.502998e-09  0 
 4.000000e-02  -3.502993e-09  0 
 2.999999e-02  1.081984e-08  0 
 3.500000e-02  -7.364648e-09  0 
 2.999999e-02  -1.081983e-08  0 
 3.500000e-02  7.364652e-09  0 
 4.000000e-02  7.737998e-10  0 
 4.000000e-02  2.543298e-15  0 
 4.000000e-02  -7.737946e-10  0 
 3.000000e-02  -6.876274e-09  0 
 3.000000e-02  1.856601e-15  0 
 3.000000e-02  6.876278e-09  0 
 3.500000e-02  -1.444386e-09  0 
 3.500000e-02  2.222995e-15  0 
 3.500000e-02  1.444390e-09  0 
CELL_DATA 8
TENSORS element_stresses FLOAT
 1.000001e+00  2.549632e-06  0 
 2.549632e-06  -3.140227e-06  0 
 0  0  0 

 9.999990e-01  3.027607e-07  0 
 3.027607e-07  2.218844e-06  0 
 0  0  0 

 9.999990e-01  -3.027607e-07  0 
 -3.027607e-07  2.218844e-06  0 
 0  0  0 

 1.000001e+00  -2.549632e-06  0 
 -2.549632e-06  -3.140227e-06  0 
 0  0  0 

 1.000000e+00  -6.935684e-08  0 
 -6.935684e-08  8.509503e-07  0 
 0  0  0 

 1.000000e+00  1.584667e-08  0 
 1.584667e-08  1.788242e-07  0 
 0  0  0 

 1.000000e+00  -1.584670e-08  0 
 -1.584670e-08  1.788242e-07  0 
 0  0  0 

 1.000000e+00  6.935684e-08  0 
 6.935684e-08  8.509503e-07  0 
 0  0  0 

TENSORS element_stresses FLOAT
 1.000001e+00  2.549632e-06  0 
 2.549632e-06  -3.140227e-06  0 
 0  0  0 

 9.999990e-01  3.027607e-07  0 
 3.027607e-07  2.218844e-06  0 
 0  0  0 

 9.999990e-01  -3.027607e-07  0 
 -3.027607e-07  2.218844e-06  0 
 0  0  0 

 1.000001e+00  -2.549632e-06  0 
 -2.549632e-06  -3.140227e-06  0 
 0  0  0 

 1.000000e+00  -6.935684e-08  0 
 -6.935684e-08  8.509503e-07  0 
 0  0  0 

 1.000000e+00  1.584667e-08  0 
 1.584667e-08  1.788242e-07  0 
 0  0  0 

 1.000000e+00  -1.584670e-08  0 
 -1.584670e-08  1.788242e-07  0 
 0  0  0 

 1.000000e+00  6.935684e-08  0 
 6.935684e-08  8.509503e-07  0 
 0  0  0 

