# vtk DataFile Version 3.1
this is an vtk file created by FEMAC
ASCII
DATASET UNSTRUCTURED_GRID
POINTS 12 FLOAT
0.500000 0.000000 0.000000
1.000000 0.000000 0.000000
0.500000 0.200000 0.000000
0.500000 0.400000 0.000000
0.500000 0.600000 0.000000
0.500000 0.800000 0.000000
0.500000 1.000000 0.000000
1.000000 0.200000 0.000000
1.000000 0.400000 0.000000
1.000000 0.600000 0.000000
1.000000 0.800000 0.000000
1.000000 1.000000 0.000000
CELLS 5 25 
4 0 1 7 2
4 2 7 8 3
4 3 8 9 4
4 4  9 10  5
4 5 10 11  6
CELL_TYPES 5
9 9 9 9 9 
POINT_DATA 12
VECTORS displacement_ITER1 FLOAT
 -5.035823e-04  -7.821948e-05  0 
 -1.849487e-03  -1.381791e-03  0 
 -4.020373e-04  -1.336385e-04  0 
 -2.260483e-05  -1.616479e-04  0 
 1.373857e-04  -2.547959e-04  0 
 4.510327e-04  -2.528782e-04  0 
 3.353714e-04  -2.716953e-04  0 
 -9.381848e-04  -1.424108e-03  0 
 -3.269116e-04  -1.425344e-03  0 
 4.376663e-04  -1.361811e-03  0 
 9.781132e-04  -1.348219e-03  0 
 1.825300e-03  -1.251240e-03  0 
VECTORS displacement_ITER2 FLOAT
 -4.495368e-04  -1.541043e-04  0 
 -1.796890e-03  -1.331597e-03  0 
 -4.067916e-04  -1.838726e-04  0 
 -7.015939e-05  -2.103158e-04  0 
 8.765764e-05  -2.188622e-04  0 
 4.368164e-04  -2.104881e-04  0 
 3.968392e-04  -1.802992e-04  0 
 -9.417548e-04  -1.382379e-03  0 
 -3.617075e-04  -1.380078e-03  0 
 3.748948e-04  -1.414847e-03  0 
 9.617256e-04  -1.416030e-03  0 
 1.902208e-03  -1.396305e-03  0 
VECTORS displacement_ITER3 FLOAT
 -4.496169e-04  -1.588094e-04  0 
 -1.832154e-03  -1.385665e-03  0 
 -4.105405e-04  -1.753071e-04  0 
 -6.553913e-05  -2.073967e-04  0 
 9.172543e-05  -2.239598e-04  0 
 4.311561e-04  -2.138194e-04  0 
 3.973475e-04  -2.000559e-04  0 
 -9.437185e-04  -1.404157e-03  0 
 -3.503234e-04  -1.396688e-03  0 
 3.748858e-04  -1.402708e-03  0 
 9.590105e-04  -1.401467e-03  0 
 1.856305e-03  -1.388263e-03  0 
VECTORS displacement_ITER4 FLOAT
 -4.528425e-04  -1.621362e-04  0 
 -1.833319e-03  -1.403833e-03  0 
 -4.089442e-04  -1.777700e-04  0 
 -6.435420e-05  -2.092201e-04  0 
 9.440844e-05  -2.205981e-04  0 
 4.322330e-04  -2.115740e-04  0 
 3.942358e-04  -1.964390e-04  0 
 -9.422394e-04  -1.404378e-03  0 
 -3.495096e-04  -1.397435e-03  0 
 3.778558e-04  -1.396131e-03  0 
 9.597646e-04  -1.394231e-03  0 
 1.856898e-03  -1.391025e-03  0 
VECTORS displacement_ITER5 FLOAT
 -4.527030e-04  -1.624023e-04  0 
 -1.833522e-03  -1.403718e-03  0 
 -4.088304e-04  -1.773467e-04  0 
 -6.460856e-05  -2.087791e-04  0 
 9.425575e-05  -2.207821e-04  0 
 4.322457e-04  -2.121685e-04  0 
 3.943924e-04  -1.964115e-04  0 
 -9.423672e-04  -1.403005e-03  0 
 -3.499780e-04  -1.395934e-03  0 
 3.784099e-04  -1.396404e-03  0 
 9.596216e-04  -1.393926e-03  0 
 1.856350e-03  -1.393690e-03  0 
VECTORS displacement_ITER6 FLOAT
 -4.525813e-04  -1.619956e-04  0 
 -1.834075e-03  -1.403669e-03  0 
 -4.088402e-04  -1.772025e-04  0 
 -6.466340e-05  -2.087613e-04  0 
 9.405766e-05  -2.204667e-04  0 
 4.322524e-04  -2.119338e-04  0 
 3.944932e-04  -1.965533e-04  0 
 -9.424438e-04  -1.402863e-03  0 
 -3.501013e-04  -1.395760e-03  0 
 3.785219e-04  -1.396174e-03  0 
 9.595761e-04  -1.393684e-03  0 
 1.855777e-03  -1.393204e-03  0 
VECTORS displacement_ITER7 FLOAT
 -4.525882e-04  -1.620223e-04  0 
 -1.833977e-03  -1.403617e-03  0 
 -4.088243e-04  -1.772339e-04  0 
 -6.468319e-05  -2.087800e-04  0 
 9.406020e-05  -2.204820e-04  0 
 4.322674e-04  -2.119262e-04  0 
 3.944864e-04  -1.965476e-04  0 
 -9.424505e-04  -1.402847e-03  0 
 -3.501094e-04  -1.395753e-03  0 
 3.785388e-04  -1.396156e-03  0 
 9.595682e-04  -1.393678e-03  0 
 1.855878e-03  -1.393311e-03  0 
VECTORS displacement_ITER8 FLOAT
 -4.525870e-04  -1.620193e-04  0 
 -1.833983e-03  -1.403601e-03  0 
 -4.088250e-04  -1.772308e-04  0 
 -6.468453e-05  -2.087787e-04  0 
 9.406011e-05  -2.204812e-04  0 
 4.322670e-04  -2.119266e-04  0 
 3.944876e-04  -1.965475e-04  0 
 -9.424508e-04  -1.402846e-03  0 
 -3.501089e-04  -1.395750e-03  0 
 3.785375e-04  -1.396158e-03  0 
 9.595679e-04  -1.393679e-03  0 
 1.855874e-03  -1.393320e-03  0 
VECTORS displacement_ITER9 FLOAT
 -4.525870e-04  -1.620193e-04  0 
 -1.833983e-03  -1.403601e-03  0 
 -4.088250e-04  -1.772308e-04  0 
 -6.468453e-05  -2.087787e-04  0 
 9.406011e-05  -2.204812e-04  0 
 4.322670e-04  -2.119266e-04  0 
 3.944876e-04  -1.965475e-04  0 
 -9.424508e-04  -1.402846e-03  0 
 -3.501089e-04  -1.395750e-03  0 
 3.785375e-04  -1.396158e-03  0 
 9.595679e-04  -1.393679e-03  0 
 1.855874e-03  -1.393320e-03  0 
VECTORS displacement_ITER10 FLOAT
 4.431868e-02  2.232664e-02  0 
 1.271271e-01  1.729670e-01  0 
 1.799563e-02  3.221833e-02  0 
 -2.004083e-02  3.627803e-02  0 
 -3.217814e-02  4.200180e-02  0 
 -6.086902e-02  4.012212e-02  0 
 -4.383205e-02  4.150154e-02  0 
 3.999297e-02  1.564854e-01  0 
 -1.026679e-02  1.567068e-01  0 
 -8.139913e-02  1.443251e-01  0 
 -1.294902e-01  1.408572e-01  0 
 -2.209573e-01  1.359216e-01  0 
VECTORS displacement_ITER11 FLOAT
 -4.118914e+12  -1.023343e+12  0 
 3.074968e+12  -2.902732e+13  0 
 3.522907e+12  -4.675778e+12  0 
 5.300092e+12  -3.503935e+12  0 
 6.517109e+12  -7.846219e+12  0 
 4.072623e+12  -8.135486e+12  0 
 6.018382e+11  -9.847599e+12  0 
 5.308826e+12  -5.948497e+12  0 
 6.052825e+12  -7.987239e+12  0 
 1.442197e+13  -2.227491e+12  0 
 1.081214e+13  -1.139886e+12  0 
 9.023052e+12  -7.370198e+12  0 
VECTORS displacement_ITER12 FLOAT
 -1.679480e+28  7.918428e+27  0 
 -1.677000e+28  -2.470203e+28  0 
 -1.606675e+27  6.317492e+25  0 
 8.256369e+27  -3.797968e+27  0 
 3.287824e+27  -2.982895e+28  0 
 -3.063751e+27  -2.898230e+28  0 
 -9.231001e+27  -1.679544e+28  0 
 -5.640402e+27  -3.243676e+28  0 
 4.362044e+27  -2.883110e+28  0 
 6.752690e+26  -1.369647e+28  0 
 -4.136315e+27  -1.496072e+28  0 
 -8.144641e+27  -2.632734e+27  0 
VECTORS displacement_ITER13 FLOAT
 -5.804081e+42  -5.698647e+41  0 
 -8.358247e+42  6.449384e+42  0 
 -9.092434e+41  2.524856e+42  0 
 -2.254632e+42  2.633220e+42  0 
 5.023501e+41  5.144380e+42  0 
 5.968033e+42  8.493440e+41  0 
 -3.470289e+42  2.949407e+42  0 
 -3.310984e+42  -3.081884e+42  0 
 4.675915e+41  -3.050920e+42  0 
 -1.431358e+42  -1.053967e+43  0 
 3.430062e+42  -7.649963e+42  0 
 7.598365e+42  -1.214473e+42  0 
VECTORS displacement_ITER14 FLOAT
 1.015703e+58  -2.259625e+58  0 
 -1.615920e+57  -1.295671e+57  0 
 -3.168484e+57  -5.611867e+57  0 
 1.540688e+57  -5.686691e+57  0 
 1.806784e+57  -3.970433e+57  0 
 6.348560e+57  -3.420870e+57  0 
 1.625690e+57  -9.436717e+57  0 
 -2.579725e+57  -1.832597e+58  0 
 4.738301e+57  -1.978991e+58  0 
 4.983737e+57  -1.008287e+58  0 
 5.902792e+57  -9.111320e+57  0 
 1.824401e+58  -2.327651e+57  0 
VECTORS displacement_ITER15 FLOAT
 -1.256904e+73  -6.479724e+73  0 
 -2.646452e+73  -1.259979e+74  0 
 5.772834e+72  -7.468346e+73  0 
 3.138042e+73  -7.443167e+73  0 
 2.593898e+73  -5.949449e+73  0 
 2.814015e+73  -6.187989e+73  0 
 2.580093e+73  -6.242532e+73  0 
 8.162752e+72  -1.450661e+74  0 
 3.039183e+73  -1.389972e+74  0 
 5.077498e+73  -7.945387e+73  0 
 5.380141e+73  -7.039932e+73  0 
 1.747140e+73  -3.145446e+73  0 
VECTORS displacement_ITER16 FLOAT
 2.553121e+89  -6.111892e+88  0 
 -4.180576e+89  2.262339e+89  0 
 -1.553352e+89  1.018494e+89  0 
 -2.078608e+89  1.574637e+89  0 
 -3.358342e+88  2.653386e+89  0 
 7.650853e+88  2.092437e+89  0 
 9.133572e+88  -1.754366e+89  0 
 -2.288776e+89  8.489921e+88  0 
 -1.271473e+89  -1.443581e+88  0 
 -1.330742e+89  -3.897329e+88  0 
 1.463004e+88  -9.096798e+87  0 
 8.235290e+88  3.893191e+89  0 
VECTORS displacement_ITER17 FLOAT
 2.553121e+89  -6.111892e+88  0 
 -4.180576e+89  2.262339e+89  0 
 -1.553352e+89  1.018494e+89  0 
 -2.078608e+89  1.574637e+89  0 
 -3.358342e+88  2.653386e+89  0 
 7.650853e+88  2.092437e+89  0 
 9.133572e+88  -1.754366e+89  0 
 -2.288776e+89  8.489921e+88  0 
 -1.271473e+89  -1.443581e+88  0 
 -1.330742e+89  -3.897329e+88  0 
 1.463004e+88  -9.096798e+87  0 
 8.235290e+88  3.893191e+89  0 
VECTORS displacement_ITER18 FLOAT
 2.553121e+89  -6.111892e+88  0 
 -4.180576e+89  2.262339e+89  0 
 -1.553352e+89  1.018494e+89  0 
 -2.078608e+89  1.574637e+89  0 
 -3.358342e+88  2.653386e+89  0 
 7.650853e+88  2.092437e+89  0 
 9.133572e+88  -1.754366e+89  0 
 -2.288776e+89  8.489921e+88  0 
 -1.271473e+89  -1.443581e+88  0 
 -1.330742e+89  -3.897329e+88  0 
 1.463004e+88  -9.096798e+87  0 
 8.235290e+88  3.893191e+89  0 
VECTORS displacement_ITER19 FLOAT
 2.553121e+89  -6.111892e+88  0 
 -4.180576e+89  2.262339e+89  0 
 -1.553352e+89  1.018494e+89  0 
 -2.078608e+89  1.574637e+89  0 
 -3.358342e+88  2.653386e+89  0 
 7.650853e+88  2.092437e+89  0 
 9.133572e+88  -1.754366e+89  0 
 -2.288776e+89  8.489921e+88  0 
 -1.271473e+89  -1.443581e+88  0 
 -1.330742e+89  -3.897329e+88  0 
 1.463004e+88  -9.096798e+87  0 
 8.235290e+88  3.893191e+89  0 
VECTORS displacement_ITER20 FLOAT
 2.553121e+89  -6.111892e+88  0 
 -4.180576e+89  2.262339e+89  0 
 -1.553352e+89  1.018494e+89  0 
 -2.078608e+89  1.574637e+89  0 
 -3.358342e+88  2.653386e+89  0 
 7.650853e+88  2.092437e+89  0 
 9.133572e+88  -1.754366e+89  0 
 -2.288776e+89  8.489921e+88  0 
 -1.271473e+89  -1.443581e+88  0 
 -1.330742e+89  -3.897329e+88  0 
 1.463004e+88  -9.096798e+87  0 
 8.235290e+88  3.893191e+89  0 
VECTORS displacement_ITER21 FLOAT
 2.553121e+89  -6.111892e+88  0 
 -4.180576e+89  2.262339e+89  0 
 -1.553352e+89  1.018494e+89  0 
 -2.078608e+89  1.574637e+89  0 
 -3.358342e+88  2.653386e+89  0 
 7.650853e+88  2.092437e+89  0 
 9.133572e+88  -1.754366e+89  0 
 -2.288776e+89  8.489921e+88  0 
 -1.271473e+89  -1.443581e+88  0 
 -1.330742e+89  -3.897329e+88  0 
 1.463004e+88  -9.096798e+87  0 
 8.235290e+88  3.893191e+89  0 
VECTORS displacement_ITER22 FLOAT
 2.553121e+89  -6.111892e+88  0 
 -4.180576e+89  2.262339e+89  0 
 -1.553352e+89  1.018494e+89  0 
 -2.078608e+89  1.574637e+89  0 
 -3.358342e+88  2.653386e+89  0 
 7.650853e+88  2.092437e+89  0 
 9.133572e+88  -1.754366e+89  0 
 -2.288776e+89  8.489921e+88  0 
 -1.271473e+89  -1.443581e+88  0 
 -1.330742e+89  -3.897329e+88  0 
 1.463004e+88  -9.096798e+87  0 
 8.235290e+88  3.893191e+89  0 
VECTORS displacement_ITER23 FLOAT
 2.553121e+89  -6.111892e+88  0 
 -4.180576e+89  2.262339e+89  0 
 -1.553352e+89  1.018494e+89  0 
 -2.078608e+89  1.574637e+89  0 
 -3.358342e+88  2.653386e+89  0 
 7.650853e+88  2.092437e+89  0 
 9.133572e+88  -1.754366e+89  0 
 -2.288776e+89  8.489921e+88  0 
 -1.271473e+89  -1.443581e+88  0 
 -1.330742e+89  -3.897329e+88  0 
 1.463004e+88  -9.096798e+87  0 
 8.235290e+88  3.893191e+89  0 
VECTORS displacement_ITER24 FLOAT
 2.553121e+89  -6.111892e+88  0 
 -4.180576e+89  2.262339e+89  0 
 -1.553352e+89  1.018494e+89  0 
 -2.078608e+89  1.574637e+89  0 
 -3.358342e+88  2.653386e+89  0 
 7.650853e+88  2.092437e+89  0 
 9.133572e+88  -1.754366e+89  0 
 -2.288776e+89  8.489921e+88  0 
 -1.271473e+89  -1.443581e+88  0 
 -1.330742e+89  -3.897329e+88  0 
 1.463004e+88  -9.096798e+87  0 
 8.235290e+88  3.893191e+89  0 
VECTORS displacement_ITER25 FLOAT
 2.553121e+89  -6.111892e+88  0 
 -4.180576e+89  2.262339e+89  0 
 -1.553352e+89  1.018494e+89  0 
 -2.078608e+89  1.574637e+89  0 
 -3.358342e+88  2.653386e+89  0 
 7.650853e+88  2.092437e+89  0 
 9.133572e+88  -1.754366e+89  0 
 -2.288776e+89  8.489921e+88  0 
 -1.271473e+89  -1.443581e+88  0 
 -1.330742e+89  -3.897329e+88  0 
 1.463004e+88  -9.096798e+87  0 
 8.235290e+88  3.893191e+89  0 
VECTORS displacement_ITER26 FLOAT
 2.553121e+89  -6.111892e+88  0 
 -4.180576e+89  2.262339e+89  0 
 -1.553352e+89  1.018494e+89  0 
 -2.078608e+89  1.574637e+89  0 
 -3.358342e+88  2.653386e+89  0 
 7.650853e+88  2.092437e+89  0 
 9.133572e+88  -1.754366e+89  0 
 -2.288776e+89  8.489921e+88  0 
 -1.271473e+89  -1.443581e+88  0 
 -1.330742e+89  -3.897329e+88  0 
 1.463004e+88  -9.096798e+87  0 
 8.235290e+88  3.893191e+89  0 
VECTORS displacement_ITER27 FLOAT
 2.553121e+89  -6.111892e+88  0 
 -4.180576e+89  2.262339e+89  0 
 -1.553352e+89  1.018494e+89  0 
 -2.078608e+89  1.574637e+89  0 
 -3.358342e+88  2.653386e+89  0 
 7.650853e+88  2.092437e+89  0 
 9.133572e+88  -1.754366e+89  0 
 -2.288776e+89  8.489921e+88  0 
 -1.271473e+89  -1.443581e+88  0 
 -1.330742e+89  -3.897329e+88  0 
 1.463004e+88  -9.096798e+87  0 
 8.235290e+88  3.893191e+89  0 
VECTORS displacement_ITER28 FLOAT
 2.553121e+89  -6.111892e+88  0 
 -4.180576e+89  2.262339e+89  0 
 -1.553352e+89  1.018494e+89  0 
 -2.078608e+89  1.574637e+89  0 
 -3.358342e+88  2.653386e+89  0 
 7.650853e+88  2.092437e+89  0 
 9.133572e+88  -1.754366e+89  0 
 -2.288776e+89  8.489921e+88  0 
 -1.271473e+89  -1.443581e+88  0 
 -1.330742e+89  -3.897329e+88  0 
 1.463004e+88  -9.096798e+87  0 
 8.235290e+88  3.893191e+89  0 
VECTORS displacement_ITER29 FLOAT
 2.553121e+89  -6.111892e+88  0 
 -4.180576e+89  2.262339e+89  0 
 -1.553352e+89  1.018494e+89  0 
 -2.078608e+89  1.574637e+89  0 
 -3.358342e+88  2.653386e+89  0 
 7.650853e+88  2.092437e+89  0 
 9.133572e+88  -1.754366e+89  0 
 -2.288776e+89  8.489921e+88  0 
 -1.271473e+89  -1.443581e+88  0 
 -1.330742e+89  -3.897329e+88  0 
 1.463004e+88  -9.096798e+87  0 
 8.235290e+88  3.893191e+89  0 
VECTORS displacement_ITER30 FLOAT
 2.553121e+89  -6.111892e+88  0 
 -4.180576e+89  2.262339e+89  0 
 -1.553352e+89  1.018494e+89  0 
 -2.078608e+89  1.574637e+89  0 
 -3.358342e+88  2.653386e+89  0 
 7.650853e+88  2.092437e+89  0 
 9.133572e+88  -1.754366e+89  0 
 -2.288776e+89  8.489921e+88  0 
 -1.271473e+89  -1.443581e+88  0 
 -1.330742e+89  -3.897329e+88  0 
 1.463004e+88  -9.096798e+87  0 
 8.235290e+88  3.893191e+89  0 
VECTORS displacement_ITER31 FLOAT
 2.553121e+89  -6.111892e+88  0 
 -4.180576e+89  2.262339e+89  0 
 -1.553352e+89  1.018494e+89  0 
 -2.078608e+89  1.574637e+89  0 
 -3.358342e+88  2.653386e+89  0 
 7.650853e+88  2.092437e+89  0 
 9.133572e+88  -1.754366e+89  0 
 -2.288776e+89  8.489921e+88  0 
 -1.271473e+89  -1.443581e+88  0 
 -1.330742e+89  -3.897329e+88  0 
 1.463004e+88  -9.096798e+87  0 
 8.235290e+88  3.893191e+89  0 
VECTORS displacement_ITER32 FLOAT
 2.553121e+89  -6.111892e+88  0 
 -4.180576e+89  2.262339e+89  0 
 -1.553352e+89  1.018494e+89  0 
 -2.078608e+89  1.574637e+89  0 
 -3.358342e+88  2.653386e+89  0 
 7.650853e+88  2.092437e+89  0 
 9.133572e+88  -1.754366e+89  0 
 -2.288776e+89  8.489921e+88  0 
 -1.271473e+89  -1.443581e+88  0 
 -1.330742e+89  -3.897329e+88  0 
 1.463004e+88  -9.096798e+87  0 
 8.235290e+88  3.893191e+89  0 
VECTORS displacement_ITER33 FLOAT
 2.553121e+89  -6.111892e+88  0 
 -4.180576e+89  2.262339e+89  0 
 -1.553352e+89  1.018494e+89  0 
 -2.078608e+89  1.574637e+89  0 
 -3.358342e+88  2.653386e+89  0 
 7.650853e+88  2.092437e+89  0 
 9.133572e+88  -1.754366e+89  0 
 -2.288776e+89  8.489921e+88  0 
 -1.271473e+89  -1.443581e+88  0 
 -1.330742e+89  -3.897329e+88  0 
 1.463004e+88  -9.096798e+87  0 
 8.235290e+88  3.893191e+89  0 
VECTORS displacement_ITER34 FLOAT
 2.553121e+89  -6.111892e+88  0 
 -4.180576e+89  2.262339e+89  0 
 -1.553352e+89  1.018494e+89  0 
 -2.078608e+89  1.574637e+89  0 
 -3.358342e+88  2.653386e+89  0 
 7.650853e+88  2.092437e+89  0 
 9.133572e+88  -1.754366e+89  0 
 -2.288776e+89  8.489921e+88  0 
 -1.271473e+89  -1.443581e+88  0 
 -1.330742e+89  -3.897329e+88  0 
 1.463004e+88  -9.096798e+87  0 
 8.235290e+88  3.893191e+89  0 
VECTORS displacement_ITER35 FLOAT
 2.553121e+89  -6.111892e+88  0 
 -4.180576e+89  2.262339e+89  0 
 -1.553352e+89  1.018494e+89  0 
 -2.078608e+89  1.574637e+89  0 
 -3.358342e+88  2.653386e+89  0 
 7.650853e+88  2.092437e+89  0 
 9.133572e+88  -1.754366e+89  0 
 -2.288776e+89  8.489921e+88  0 
 -1.271473e+89  -1.443581e+88  0 
 -1.330742e+89  -3.897329e+88  0 
 1.463004e+88  -9.096798e+87  0 
 8.235290e+88  3.893191e+89  0 
VECTORS displacement_ITER36 FLOAT
 2.553121e+89  -6.111892e+88  0 
 -4.180576e+89  2.262339e+89  0 
 -1.553352e+89  1.018494e+89  0 
 -2.078608e+89  1.574637e+89  0 
 -3.358342e+88  2.653386e+89  0 
 7.650853e+88  2.092437e+89  0 
 9.133572e+88  -1.754366e+89  0 
 -2.288776e+89  8.489921e+88  0 
 -1.271473e+89  -1.443581e+88  0 
 -1.330742e+89  -3.897329e+88  0 
 1.463004e+88  -9.096798e+87  0 
 8.235290e+88  3.893191e+89  0 
VECTORS displacement_ITER37 FLOAT
 2.553121e+89  -6.111892e+88  0 
 -4.180576e+89  2.262339e+89  0 
 -1.553352e+89  1.018494e+89  0 
 -2.078608e+89  1.574637e+89  0 
 -3.358342e+88  2.653386e+89  0 
 7.650853e+88  2.092437e+89  0 
 9.133572e+88  -1.754366e+89  0 
 -2.288776e+89  8.489921e+88  0 
 -1.271473e+89  -1.443581e+88  0 
 -1.330742e+89  -3.897329e+88  0 
 1.463004e+88  -9.096798e+87  0 
 8.235290e+88  3.893191e+89  0 
VECTORS displacement_ITER38 FLOAT
 2.553121e+89  -6.111892e+88  0 
 -4.180576e+89  2.262339e+89  0 
 -1.553352e+89  1.018494e+89  0 
 -2.078608e+89  1.574637e+89  0 
 -3.358342e+88  2.653386e+89  0 
 7.650853e+88  2.092437e+89  0 
 9.133572e+88  -1.754366e+89  0 
 -2.288776e+89  8.489921e+88  0 
 -1.271473e+89  -1.443581e+88  0 
 -1.330742e+89  -3.897329e+88  0 
 1.463004e+88  -9.096798e+87  0 
 8.235290e+88  3.893191e+89  0 
VECTORS displacement_ITER39 FLOAT
 2.553121e+89  -6.111892e+88  0 
 -4.180576e+89  2.262339e+89  0 
 -1.553352e+89  1.018494e+89  0 
 -2.078608e+89  1.574637e+89  0 
 -3.358342e+88  2.653386e+89  0 
 7.650853e+88  2.092437e+89  0 
 9.133572e+88  -1.754366e+89  0 
 -2.288776e+89  8.489921e+88  0 
 -1.271473e+89  -1.443581e+88  0 
 -1.330742e+89  -3.897329e+88  0 
 1.463004e+88  -9.096798e+87  0 
 8.235290e+88  3.893191e+89  0 
VECTORS displacement_ITER40 FLOAT
 2.553121e+89  -6.111892e+88  0 
 -4.180576e+89  2.262339e+89  0 
 -1.553352e+89  1.018494e+89  0 
 -2.078608e+89  1.574637e+89  0 
 -3.358342e+88  2.653386e+89  0 
 7.650853e+88  2.092437e+89  0 
 9.133572e+88  -1.754366e+89  0 
 -2.288776e+89  8.489921e+88  0 
 -1.271473e+89  -1.443581e+88  0 
 -1.330742e+89  -3.897329e+88  0 
 1.463004e+88  -9.096798e+87  0 
 8.235290e+88  3.893191e+89  0 
VECTORS displacement_ITER41 FLOAT
 2.553121e+89  -6.111892e+88  0 
 -4.180576e+89  2.262339e+89  0 
 -1.553352e+89  1.018494e+89  0 
 -2.078608e+89  1.574637e+89  0 
 -3.358342e+88  2.653386e+89  0 
 7.650853e+88  2.092437e+89  0 
 9.133572e+88  -1.754366e+89  0 
 -2.288776e+89  8.489921e+88  0 
 -1.271473e+89  -1.443581e+88  0 
 -1.330742e+89  -3.897329e+88  0 
 1.463004e+88  -9.096798e+87  0 
 8.235290e+88  3.893191e+89  0 
VECTORS displacement_ITER42 FLOAT
 2.553121e+89  -6.111892e+88  0 
 -4.180576e+89  2.262339e+89  0 
 -1.553352e+89  1.018494e+89  0 
 -2.078608e+89  1.574637e+89  0 
 -3.358342e+88  2.653386e+89  0 
 7.650853e+88  2.092437e+89  0 
 9.133572e+88  -1.754366e+89  0 
 -2.288776e+89  8.489921e+88  0 
 -1.271473e+89  -1.443581e+88  0 
 -1.330742e+89  -3.897329e+88  0 
 1.463004e+88  -9.096798e+87  0 
 8.235290e+88  3.893191e+89  0 
VECTORS displacement_ITER43 FLOAT
 2.553121e+89  -6.111892e+88  0 
 -4.180576e+89  2.262339e+89  0 
 -1.553352e+89  1.018494e+89  0 
 -2.078608e+89  1.574637e+89  0 
 -3.358342e+88  2.653386e+89  0 
 7.650853e+88  2.092437e+89  0 
 9.133572e+88  -1.754366e+89  0 
 -2.288776e+89  8.489921e+88  0 
 -1.271473e+89  -1.443581e+88  0 
 -1.330742e+89  -3.897329e+88  0 
 1.463004e+88  -9.096798e+87  0 
 8.235290e+88  3.893191e+89  0 
VECTORS displacement_ITER44 FLOAT
 2.553121e+89  -6.111892e+88  0 
 -4.180576e+89  2.262339e+89  0 
 -1.553352e+89  1.018494e+89  0 
 -2.078608e+89  1.574637e+89  0 
 -3.358342e+88  2.653386e+89  0 
 7.650853e+88  2.092437e+89  0 
 9.133572e+88  -1.754366e+89  0 
 -2.288776e+89  8.489921e+88  0 
 -1.271473e+89  -1.443581e+88  0 
 -1.330742e+89  -3.897329e+88  0 
 1.463004e+88  -9.096798e+87  0 
 8.235290e+88  3.893191e+89  0 
VECTORS displacement_ITER45 FLOAT
 2.553121e+89  -6.111892e+88  0 
 -4.180576e+89  2.262339e+89  0 
 -1.553352e+89  1.018494e+89  0 
 -2.078608e+89  1.574637e+89  0 
 -3.358342e+88  2.653386e+89  0 
 7.650853e+88  2.092437e+89  0 
 9.133572e+88  -1.754366e+89  0 
 -2.288776e+89  8.489921e+88  0 
 -1.271473e+89  -1.443581e+88  0 
 -1.330742e+89  -3.897329e+88  0 
 1.463004e+88  -9.096798e+87  0 
 8.235290e+88  3.893191e+89  0 
VECTORS displacement_ITER46 FLOAT
 2.553121e+89  -6.111892e+88  0 
 -4.180576e+89  2.262339e+89  0 
 -1.553352e+89  1.018494e+89  0 
 -2.078608e+89  1.574637e+89  0 
 -3.358342e+88  2.653386e+89  0 
 7.650853e+88  2.092437e+89  0 
 9.133572e+88  -1.754366e+89  0 
 -2.288776e+89  8.489921e+88  0 
 -1.271473e+89  -1.443581e+88  0 
 -1.330742e+89  -3.897329e+88  0 
 1.463004e+88  -9.096798e+87  0 
 8.235290e+88  3.893191e+89  0 
VECTORS displacement_ITER47 FLOAT
 2.553121e+89  -6.111892e+88  0 
 -4.180576e+89  2.262339e+89  0 
 -1.553352e+89  1.018494e+89  0 
 -2.078608e+89  1.574637e+89  0 
 -3.358342e+88  2.653386e+89  0 
 7.650853e+88  2.092437e+89  0 
 9.133572e+88  -1.754366e+89  0 
 -2.288776e+89  8.489921e+88  0 
 -1.271473e+89  -1.443581e+88  0 
 -1.330742e+89  -3.897329e+88  0 
 1.463004e+88  -9.096798e+87  0 
 8.235290e+88  3.893191e+89  0 
VECTORS displacement_ITER48 FLOAT
 2.553121e+89  -6.111892e+88  0 
 -4.180576e+89  2.262339e+89  0 
 -1.553352e+89  1.018494e+89  0 
 -2.078608e+89  1.574637e+89  0 
 -3.358342e+88  2.653386e+89  0 
 7.650853e+88  2.092437e+89  0 
 9.133572e+88  -1.754366e+89  0 
 -2.288776e+89  8.489921e+88  0 
 -1.271473e+89  -1.443581e+88  0 
 -1.330742e+89  -3.897329e+88  0 
 1.463004e+88  -9.096798e+87  0 
 8.235290e+88  3.893191e+89  0 
VECTORS displacement_ITER49 FLOAT
 2.553121e+89  -6.111892e+88  0 
 -4.180576e+89  2.262339e+89  0 
 -1.553352e+89  1.018494e+89  0 
 -2.078608e+89  1.574637e+89  0 
 -3.358342e+88  2.653386e+89  0 
 7.650853e+88  2.092437e+89  0 
 9.133572e+88  -1.754366e+89  0 
 -2.288776e+89  8.489921e+88  0 
 -1.271473e+89  -1.443581e+88  0 
 -1.330742e+89  -3.897329e+88  0 
 1.463004e+88  -9.096798e+87  0 
 8.235290e+88  3.893191e+89  0 
VECTORS displacement_ITER50 FLOAT
 2.553121e+89  -6.111892e+88  0 
 -4.180576e+89  2.262339e+89  0 
 -1.553352e+89  1.018494e+89  0 
 -2.078608e+89  1.574637e+89  0 
 -3.358342e+88  2.653386e+89  0 
 7.650853e+88  2.092437e+89  0 
 9.133572e+88  -1.754366e+89  0 
 -2.288776e+89  8.489921e+88  0 
 -1.271473e+89  -1.443581e+88  0 
 -1.330742e+89  -3.897329e+88  0 
 1.463004e+88  -9.096798e+87  0 
 8.235290e+88  3.893191e+89  0 
VECTORS displacement_ITER51 FLOAT
 2.553121e+89  -6.111892e+88  0 
 -4.180576e+89  2.262339e+89  0 
 -1.553352e+89  1.018494e+89  0 
 -2.078608e+89  1.574637e+89  0 
 -3.358342e+88  2.653386e+89  0 
 7.650853e+88  2.092437e+89  0 
 9.133572e+88  -1.754366e+89  0 
 -2.288776e+89  8.489921e+88  0 
 -1.271473e+89  -1.443581e+88  0 
 -1.330742e+89  -3.897329e+88  0 
 1.463004e+88  -9.096798e+87  0 
 8.235290e+88  3.893191e+89  0 
VECTORS displacement_ITER52 FLOAT
 2.553121e+89  -6.111892e+88  0 
 -4.180576e+89  2.262339e+89  0 
 -1.553352e+89  1.018494e+89  0 
 -2.078608e+89  1.574637e+89  0 
 -3.358342e+88  2.653386e+89  0 
 7.650853e+88  2.092437e+89  0 
 9.133572e+88  -1.754366e+89  0 
 -2.288776e+89  8.489921e+88  0 
 -1.271473e+89  -1.443581e+88  0 
 -1.330742e+89  -3.897329e+88  0 
 1.463004e+88  -9.096798e+87  0 
 8.235290e+88  3.893191e+89  0 
VECTORS displacement_ITER53 FLOAT
 2.553121e+89  -6.111892e+88  0 
 -4.180576e+89  2.262339e+89  0 
 -1.553352e+89  1.018494e+89  0 
 -2.078608e+89  1.574637e+89  0 
 -3.358342e+88  2.653386e+89  0 
 7.650853e+88  2.092437e+89  0 
 9.133572e+88  -1.754366e+89  0 
 -2.288776e+89  8.489921e+88  0 
 -1.271473e+89  -1.443581e+88  0 
 -1.330742e+89  -3.897329e+88  0 
 1.463004e+88  -9.096798e+87  0 
 8.235290e+88  3.893191e+89  0 
VECTORS displacement_ITER54 FLOAT
 2.553121e+89  -6.111892e+88  0 
 -4.180576e+89  2.262339e+89  0 
 -1.553352e+89  1.018494e+89  0 
 -2.078608e+89  1.574637e+89  0 
 -3.358342e+88  2.653386e+89  0 
 7.650853e+88  2.092437e+89  0 
 9.133572e+88  -1.754366e+89  0 
 -2.288776e+89  8.489921e+88  0 
 -1.271473e+89  -1.443581e+88  0 
 -1.330742e+89  -3.897329e+88  0 
 1.463004e+88  -9.096798e+87  0 
 8.235290e+88  3.893191e+89  0 
VECTORS displacement_ITER55 FLOAT
 2.553121e+89  -6.111892e+88  0 
 -4.180576e+89  2.262339e+89  0 
 -1.553352e+89  1.018494e+89  0 
 -2.078608e+89  1.574637e+89  0 
 -3.358342e+88  2.653386e+89  0 
 7.650853e+88  2.092437e+89  0 
 9.133572e+88  -1.754366e+89  0 
 -2.288776e+89  8.489921e+88  0 
 -1.271473e+89  -1.443581e+88  0 
 -1.330742e+89  -3.897329e+88  0 
 1.463004e+88  -9.096798e+87  0 
 8.235290e+88  3.893191e+89  0 
VECTORS displacement_ITER56 FLOAT
 2.553121e+89  -6.111892e+88  0 
 -4.180576e+89  2.262339e+89  0 
 -1.553352e+89  1.018494e+89  0 
 -2.078608e+89  1.574637e+89  0 
 -3.358342e+88  2.653386e+89  0 
 7.650853e+88  2.092437e+89  0 
 9.133572e+88  -1.754366e+89  0 
 -2.288776e+89  8.489921e+88  0 
 -1.271473e+89  -1.443581e+88  0 
 -1.330742e+89  -3.897329e+88  0 
 1.463004e+88  -9.096798e+87  0 
 8.235290e+88  3.893191e+89  0 
VECTORS displacement_ITER57 FLOAT
 2.553121e+89  -6.111892e+88  0 
 -4.180576e+89  2.262339e+89  0 
 -1.553352e+89  1.018494e+89  0 
 -2.078608e+89  1.574637e+89  0 
 -3.358342e+88  2.653386e+89  0 
 7.650853e+88  2.092437e+89  0 
 9.133572e+88  -1.754366e+89  0 
 -2.288776e+89  8.489921e+88  0 
 -1.271473e+89  -1.443581e+88  0 
 -1.330742e+89  -3.897329e+88  0 
 1.463004e+88  -9.096798e+87  0 
 8.235290e+88  3.893191e+89  0 
VECTORS displacement_ITER58 FLOAT
 2.553121e+89  -6.111892e+88  0 
 -4.180576e+89  2.262339e+89  0 
 -1.553352e+89  1.018494e+89  0 
 -2.078608e+89  1.574637e+89  0 
 -3.358342e+88  2.653386e+89  0 
 7.650853e+88  2.092437e+89  0 
 9.133572e+88  -1.754366e+89  0 
 -2.288776e+89  8.489921e+88  0 
 -1.271473e+89  -1.443581e+88  0 
 -1.330742e+89  -3.897329e+88  0 
 1.463004e+88  -9.096798e+87  0 
 8.235290e+88  3.893191e+89  0 
VECTORS displacement_ITER59 FLOAT
 2.553121e+89  -6.111892e+88  0 
 -4.180576e+89  2.262339e+89  0 
 -1.553352e+89  1.018494e+89  0 
 -2.078608e+89  1.574637e+89  0 
 -3.358342e+88  2.653386e+89  0 
 7.650853e+88  2.092437e+89  0 
 9.133572e+88  -1.754366e+89  0 
 -2.288776e+89  8.489921e+88  0 
 -1.271473e+89  -1.443581e+88  0 
 -1.330742e+89  -3.897329e+88  0 
 1.463004e+88  -9.096798e+87  0 
 8.235290e+88  3.893191e+89  0 
VECTORS displacement_ITER60 FLOAT
 2.553121e+89  -6.111892e+88  0 
 -4.180576e+89  2.262339e+89  0 
 -1.553352e+89  1.018494e+89  0 
 -2.078608e+89  1.574637e+89  0 
 -3.358342e+88  2.653386e+89  0 
 7.650853e+88  2.092437e+89  0 
 9.133572e+88  -1.754366e+89  0 
 -2.288776e+89  8.489921e+88  0 
 -1.271473e+89  -1.443581e+88  0 
 -1.330742e+89  -3.897329e+88  0 
 1.463004e+88  -9.096798e+87  0 
 8.235290e+88  3.893191e+89  0 
VECTORS displacement_ITER61 FLOAT
 2.553121e+89  -6.111892e+88  0 
 -4.180576e+89  2.262339e+89  0 
 -1.553352e+89  1.018494e+89  0 
 -2.078608e+89  1.574637e+89  0 
 -3.358342e+88  2.653386e+89  0 
 7.650853e+88  2.092437e+89  0 
 9.133572e+88  -1.754366e+89  0 
 -2.288776e+89  8.489921e+88  0 
 -1.271473e+89  -1.443581e+88  0 
 -1.330742e+89  -3.897329e+88  0 
 1.463004e+88  -9.096798e+87  0 
 8.235290e+88  3.893191e+89  0 
VECTORS displacement_ITER62 FLOAT
 2.553121e+89  -6.111892e+88  0 
 -4.180576e+89  2.262339e+89  0 
 -1.553352e+89  1.018494e+89  0 
 -2.078608e+89  1.574637e+89  0 
 -3.358342e+88  2.653386e+89  0 
 7.650853e+88  2.092437e+89  0 
 9.133572e+88  -1.754366e+89  0 
 -2.288776e+89  8.489921e+88  0 
 -1.271473e+89  -1.443581e+88  0 
 -1.330742e+89  -3.897329e+88  0 
 1.463004e+88  -9.096798e+87  0 
 8.235290e+88  3.893191e+89  0 
VECTORS displacement_ITER63 FLOAT
 2.553121e+89  -6.111892e+88  0 
 -4.180576e+89  2.262339e+89  0 
 -1.553352e+89  1.018494e+89  0 
 -2.078608e+89  1.574637e+89  0 
 -3.358342e+88  2.653386e+89  0 
 7.650853e+88  2.092437e+89  0 
 9.133572e+88  -1.754366e+89  0 
 -2.288776e+89  8.489921e+88  0 
 -1.271473e+89  -1.443581e+88  0 
 -1.330742e+89  -3.897329e+88  0 
 1.463004e+88  -9.096798e+87  0 
 8.235290e+88  3.893191e+89  0 
VECTORS displacement_ITER64 FLOAT
 2.553121e+89  -6.111892e+88  0 
 -4.180576e+89  2.262339e+89  0 
 -1.553352e+89  1.018494e+89  0 
 -2.078608e+89  1.574637e+89  0 
 -3.358342e+88  2.653386e+89  0 
 7.650853e+88  2.092437e+89  0 
 9.133572e+88  -1.754366e+89  0 
 -2.288776e+89  8.489921e+88  0 
 -1.271473e+89  -1.443581e+88  0 
 -1.330742e+89  -3.897329e+88  0 
 1.463004e+88  -9.096798e+87  0 
 8.235290e+88  3.893191e+89  0 
VECTORS displacement_ITER65 FLOAT
 2.553121e+89  -6.111892e+88  0 
 -4.180576e+89  2.262339e+89  0 
 -1.553352e+89  1.018494e+89  0 
 -2.078608e+89  1.574637e+89  0 
 -3.358342e+88  2.653386e+89  0 
 7.650853e+88  2.092437e+89  0 
 9.133572e+88  -1.754366e+89  0 
 -2.288776e+89  8.489921e+88  0 
 -1.271473e+89  -1.443581e+88  0 
 -1.330742e+89  -3.897329e+88  0 
 1.463004e+88  -9.096798e+87  0 
 8.235290e+88  3.893191e+89  0 
VECTORS displacement_ITER66 FLOAT
 2.553121e+89  -6.111892e+88  0 
 -4.180576e+89  2.262339e+89  0 
 -1.553352e+89  1.018494e+89  0 
 -2.078608e+89  1.574637e+89  0 
 -3.358342e+88  2.653386e+89  0 
 7.650853e+88  2.092437e+89  0 
 9.133572e+88  -1.754366e+89  0 
 -2.288776e+89  8.489921e+88  0 
 -1.271473e+89  -1.443581e+88  0 
 -1.330742e+89  -3.897329e+88  0 
 1.463004e+88  -9.096798e+87  0 
 8.235290e+88  3.893191e+89  0 
VECTORS displacement_ITER67 FLOAT
 2.553121e+89  -6.111892e+88  0 
 -4.180576e+89  2.262339e+89  0 
 -1.553352e+89  1.018494e+89  0 
 -2.078608e+89  1.574637e+89  0 
 -3.358342e+88  2.653386e+89  0 
 7.650853e+88  2.092437e+89  0 
 9.133572e+88  -1.754366e+89  0 
 -2.288776e+89  8.489921e+88  0 
 -1.271473e+89  -1.443581e+88  0 
 -1.330742e+89  -3.897329e+88  0 
 1.463004e+88  -9.096798e+87  0 
 8.235290e+88  3.893191e+89  0 
VECTORS displacement_ITER68 FLOAT
 2.553121e+89  -6.111892e+88  0 
 -4.180576e+89  2.262339e+89  0 
 -1.553352e+89  1.018494e+89  0 
 -2.078608e+89  1.574637e+89  0 
 -3.358342e+88  2.653386e+89  0 
 7.650853e+88  2.092437e+89  0 
 9.133572e+88  -1.754366e+89  0 
 -2.288776e+89  8.489921e+88  0 
 -1.271473e+89  -1.443581e+88  0 
 -1.330742e+89  -3.897329e+88  0 
 1.463004e+88  -9.096798e+87  0 
 8.235290e+88  3.893191e+89  0 
VECTORS displacement_ITER69 FLOAT
 2.553121e+89  -6.111892e+88  0 
 -4.180576e+89  2.262339e+89  0 
 -1.553352e+89  1.018494e+89  0 