# vtk DataFile Version 3.1
this is an vtk file created by FEMAC
ASCII
DATASET UNSTRUCTURED_GRID
POINTS 12 FLOAT
2.000000 0.000000 0.000000
2.500000 0.000000 0.000000
2.000000 0.200000 0.000000
2.000000 0.400000 0.000000
2.000000 0.600000 0.000000
2.000000 0.800000 0.000000
2.000000 1.000000 0.000000
2.500000 0.200000 0.000000
2.500000 0.400000 0.000000
2.500000 0.600000 0.000000
2.500000 0.800000 0.000000
2.500000 1.000000 0.000000
CELLS 5 25 
4 0 1 7 2
4 2 7 8 3
4 3 8 9 4
4 4  9 10  5
4 5 10 11  6
CELL_TYPES 5
9 9 9 9 9 
POINT_DATA 12
VECTORS displacement_ITER1 FLOAT
 -3.206926e-03  -6.017610e-03  0 
 -3.420496e-03  -9.297909e-03  0 
 -1.848925e-03  -6.006971e-03  0 
 -6.396707e-04  -5.935786e-03  0 
 6.819016e-04  -5.935786e-03  0 
 1.891155e-03  -6.006971e-03  0 
 3.249157e-03  -6.017610e-03  0 
 -2.149626e-03  -9.308190e-03  0 
 -6.779808e-04  -9.392463e-03  0 
 7.202118e-04  -9.392463e-03  0 
 2.191857e-03  -9.308190e-03  0 
 3.462727e-03  -9.297909e-03  0 
VECTORS displacement_ITER2 FLOAT
 -3.156907e-03  -6.103408e-03  0 
 -3.363252e-03  -9.434159e-03  0 
 -1.770460e-03  -6.103621e-03  0 
 -6.163388e-04  -6.113056e-03  0 
 6.495222e-04  -6.112730e-03  0 
 1.806214e-03  -6.100858e-03  0 
 3.194427e-03  -6.100638e-03  0 
 -2.089512e-03  -9.434636e-03  0 
 -6.586424e-04  -9.426527e-03  0 
 6.923690e-04  -9.426733e-03  0 
 2.124876e-03  -9.436554e-03  0 
 3.400604e-03  -9.436082e-03  0 
VECTORS displacement_ITER3 FLOAT
 -3.154395e-03  -6.118842e-03  0 
 -3.360046e-03  -9.438269e-03  0 
 -1.772392e-03  -6.118655e-03  0 
 -6.180223e-04  -6.121356e-03  0 
 6.442633e-04  -6.121262e-03  0 
 1.797693e-03  -6.120198e-03  0 
 3.177534e-03  -6.120334e-03  0 
 -2.090446e-03  -9.438828e-03  0 
 -6.628840e-04  -9.432731e-03  0 
 6.894251e-04  -9.432642e-03  0 
 2.115423e-03  -9.435794e-03  0 
 3.383211e-03  -9.435185e-03  0 
VECTORS displacement_ITER4 FLOAT
 -3.152648e-03  -6.121691e-03  0 
 -3.358161e-03  -9.433553e-03  0 
 -1.774341e-03  -6.120733e-03  0 
 -6.201181e-04  -6.122145e-03  0 
 6.399718e-04  -6.121714e-03  0 
 1.797821e-03  -6.115756e-03  0 
 3.179057e-03  -6.116816e-03  0 
 -2.091196e-03  -9.434124e-03  0 
 -6.663733e-04  -9.431118e-03  0 
 6.867946e-04  -9.431334e-03  0 
 2.114101e-03  -9.437212e-03  0 
 3.384578e-03  -9.436575e-03  0 
VECTORS displacement_ITER5 FLOAT
 -3.155725e-03  -6.116463e-03  0 
 -3.361116e-03  -9.433994e-03  0 
 -1.775192e-03  -6.115120e-03  0 
 -6.182950e-04  -6.121882e-03  0 
 6.407535e-04  -6.121774e-03  0 
 1.797760e-03  -6.116523e-03  0 
 3.177787e-03  -6.117938e-03  0 
 -2.091586e-03  -9.435085e-03  0 
 -6.652982e-04  -9.429699e-03  0 
 6.879836e-04  -9.429742e-03  0 
 2.113920e-03  -9.435653e-03  0 
 3.383186e-03  -9.434536e-03  0 
VECTORS displacement_ITER6 FLOAT
 -3.155942e-03  -6.116849e-03  0 
 -3.361331e-03  -9.434210e-03  0 
 -1.775459e-03  -6.115457e-03  0 
 -6.187009e-04  -6.121845e-03  0 
 6.403420e-04  -6.121754e-03  0 
 1.797463e-03  -6.115426e-03  0 
 3.177801e-03  -6.116910e-03  0 
 -2.091862e-03  -9.435354e-03  0 
 -6.657166e-04  -9.429626e-03  0 
 6.875719e-04  -9.429659e-03  0 
 2.113657e-03  -9.435340e-03  0 
 3.383183e-03  -9.434146e-03  0 
VECTORS displacement_ITER7 FLOAT
 -3.155810e-03  -6.116870e-03  0 
 -3.361202e-03  -9.434178e-03  0 
 -1.775351e-03  -6.115467e-03  0 
 -6.186326e-04  -6.121821e-03  0 
 6.404023e-04  -6.121741e-03  0 
 1.797585e-03  -6.115374e-03  0 
 3.177940e-03  -6.116845e-03  0 
 -2.091748e-03  -9.435323e-03  0 
 -6.656509e-04  -9.429604e-03  0 
 6.876385e-04  -9.429634e-03  0 
 2.113776e-03  -9.435319e-03  0 
 3.383318e-03  -9.434129e-03  0 
VECTORS displacement_ITER8 FLOAT
 -3.155819e-03  -6.116866e-03  0 
 -3.361220e-03  -9.434173e-03  0 
 -1.775363e-03  -6.115458e-03  0 
 -6.186556e-04  -6.121827e-03  0 
 6.403817e-04  -6.121740e-03  0 
 1.797570e-03  -6.115387e-03  0 
 3.177930e-03  -6.116853e-03  0 
 -2.091762e-03  -9.435323e-03  0 
 -6.656640e-04  -9.429608e-03  0 
 6.876250e-04  -9.429637e-03  0 
 2.113762e-03  -9.435327e-03  0 
 3.383299e-03  -9.434142e-03  0 
VECTORS displacement_ITER9 FLOAT
 -3.155819e-03  -6.116867e-03  0 
 -3.361220e-03  -9.434173e-03  0 
 -1.775363e-03  -6.115458e-03  0 
 -6.186556e-04  -6.121827e-03  0 
 6.403817e-04  -6.121740e-03  0 
 1.797570e-03  -6.115387e-03  0 
 3.177930e-03  -6.116853e-03  0 
 -2.091762e-03  -9.435323e-03  0 
 -6.656639e-04  -9.429609e-03  0 
 6.876251e-04  -9.429637e-03  0 
 2.113762e-03  -9.435327e-03  0 
 3.383300e-03  -9.434142e-03  0 
VECTORS displacement_ITER10 FLOAT
 1.495090e-01  5.526650e-01  0 
 1.495716e-01  8.159402e-01  0 
 4.939006e-02  5.481925e-01  0 
 -4.141080e-02  5.282997e-01  0 
 -1.463691e-01  5.274972e-01  0 
 -2.328012e-01  5.567208e-01  0 
 -3.254054e-01  5.591660e-01  0 
 3.691886e-02  8.233935e-01  0 
 -6.329084e-02  8.002249e-01  0 
 -1.694086e-01  8.004868e-01  0 
 -2.456287e-01  7.877459e-01  0 
 -3.332537e-01  7.818308e-01  0 
VECTORS displacement_ITER11 FLOAT
 3.166642e+12  -1.516955e+13  0 
 3.344323e+12  -3.128451e+13  0 
 1.047890e+13  -1.601664e+13  0 
 2.611553e+13  -1.202353e+13  0 
 3.375255e+13  -1.105538e+13  0 
 2.872807e+13  -3.345873e+13  0 
 5.241162e+12  -3.117706e+13  0 
 1.218613e+13  -2.854207e+13  0 
 2.228688e+13  -4.164122e+13  0 
 3.854974e+13  -3.952456e+13  0 
 2.432849e+13  1.957872e+13  0 
 5.454932e+12  1.898725e+13  0 
VECTORS displacement_ITER12 FLOAT
 1.584372e+28  -2.687240e+28  0 
 2.085782e+28  3.584643e+26  0 
 6.233374e+27  -2.380526e+28  0 
 2.431889e+27  -1.681211e+28  0 
 2.344787e+27  -1.760896e+28  0 
 -5.323915e+27  -1.566955e+28  0 
 2.498073e+27  -1.766471e+28  0 
 1.151581e+28  -3.417795e+27  0 
 2.129745e+27  -7.425793e+27  0 
 -4.018892e+27  -5.652623e+27  0 
 -2.924080e+27  -3.258266e+28  0 
 6.483467e+26  -2.963121e+28  0 
VECTORS displacement_ITER13 FLOAT
 3.293901e+43  -2.417636e+43  0 
 3.608496e+43  2.205136e+43  0 
 1.471391e+43  -2.560680e+43  0 
 -2.413707e+42  -1.709154e+43  0 
 -7.587054e+42  -1.737610e+43  0 
 -4.134470e+42  1.738504e+43  0 
 1.604947e+43  1.879711e+43  0 
 1.752116e+43  2.248011e+43  0 
 4.232721e+42  -7.080711e+42  0 
 -1.118499e+42  -6.242480e+42  0 
 -3.732087e+42  -3.202475e+43  0 
 1.604987e+43  -3.310170e+43  0 
VECTORS displacement_ITER14 FLOAT
 1.068508e+58  -3.939397e+58  0 
 1.173263e+58  -4.576691e+57  0 
 -1.058351e+57  -3.202097e+58  0 
 7.222621e+57  -5.355888e+57  0 
 5.869077e+57  -7.867315e+57  0 
 1.092555e+58  3.830540e+57  0 
 1.548883e+58  4.968250e+57  0 
 1.182511e+57  -1.338476e+58  0 
 9.286972e+57  -5.642213e+57  0 
 4.061806e+57  6.812721e+55  0 
 9.704732e+57  -5.309428e+57  0 
 1.295409e+58  -6.922894e+57  0 
VECTORS displacement_ITER15 FLOAT
 5.460878e+73  -1.547561e+74  0 
 7.257963e+73  -1.454527e+74  0 
 3.622653e+73  -1.436064e+74  0 
 3.759163e+72  -1.674969e+74  0 
 -7.515350e+73  -1.552351e+74  0 
 -1.720897e+73  -8.209930e+72  0 
 6.782902e+73  -2.088104e+73  0 
 8.150770e+73  -1.480320e+74  0 
 -8.687309e+72  -1.770719e+73  0 
 -5.818023e+73  -2.309516e+73  0 
 -7.078349e+73  -2.812469e+74  0 
 5.233217e+73  -2.740896e+74  0 
VECTORS displacement_ITER16 FLOAT
 9.197028e+87  -8.889420e+88  0 
 -4.227052e+88  1.429276e+89  0 
 -1.194074e+89  -3.715790e+88  0 
 2.928299e+88  1.455946e+89  0 
 -1.209120e+89  6.608765e+88  0 
 -2.089620e+89  2.437436e+89  0 
 -2.365896e+89  2.465963e+89  0 
 -1.147491e+88  1.460194e+89  0 
 -6.431074e+88  4.415431e+89  0 
 -1.206643e+89  5.566476e+89  0 
 -7.403045e+88  4.863459e+89  0 
 -2.472743e+89  4.753130e+89  0 
VECTORS displacement_ITER17 FLOAT
 9.197028e+87  -8.889420e+88  0 
 -4.227052e+88  1.429276e+89  0 
 -1.194074e+89  -3.715790e+88  0 
 2.928299e+88  1.455946e+89  0 
 -1.209120e+89  6.608765e+88  0 
 -2.089620e+89  2.437436e+89  0 
 -2.365896e+89  2.465963e+89  0 
 -1.147491e+88  1.460194e+89  0 
 -6.431074e+88  4.415431e+89  0 
 -1.206643e+89  5.566476e+89  0 
 -7.403045e+88  4.863459e+89  0 
 -2.472743e+89  4.753130e+89  0 
VECTORS displacement_ITER18 FLOAT
 9.197028e+87  -8.889420e+88  0 
 -4.227052e+88  1.429276e+89  0 
 -1.194074e+89  -3.715790e+88  0 
 2.928299e+88  1.455946e+89  0 
 -1.209120e+89  6.608765e+88  0 
 -2.089620e+89  2.437436e+89  0 
 -2.365896e+89  2.465963e+89  0 
 -1.147491e+88  1.460194e+89  0 
 -6.431074e+88  4.415431e+89  0 
 -1.206643e+89  5.566476e+89  0 
 -7.403045e+88  4.863459e+89  0 
 -2.472743e+89  4.753130e+89  0 
VECTORS displacement_ITER19 FLOAT
 9.197028e+87  -8.889420e+88  0 
 -4.227052e+88  1.429276e+89  0 
 -1.194074e+89  -3.715790e+88  0 
 2.928299e+88  1.455946e+89  0 
 -1.209120e+89  6.608765e+88  0 
 -2.089620e+89  2.437436e+89  0 
 -2.365896e+89  2.465963e+89  0 
 -1.147491e+88  1.460194e+89  0 
 -6.431074e+88  4.415431e+89  0 
 -1.206643e+89  5.566476e+89  0 
 -7.403045e+88  4.863459e+89  0 
 -2.472743e+89  4.753130e+89  0 
VECTORS displacement_ITER20 FLOAT
 9.197028e+87  -8.889420e+88  0 
 -4.227052e+88  1.429276e+89  0 
 -1.194074e+89  -3.715790e+88  0 
 2.928299e+88  1.455946e+89  0 
 -1.209120e+89  6.608765e+88  0 
 -2.089620e+89  2.437436e+89  0 
 -2.365896e+89  2.465963e+89  0 
 -1.147491e+88  1.460194e+89  0 
 -6.431074e+88  4.415431e+89  0 
 -1.206643e+89  5.566476e+89  0 
 -7.403045e+88  4.863459e+89  0 
 -2.472743e+89  4.753130e+89  0 
VECTORS displacement_ITER21 FLOAT
 9.197028e+87  -8.889420e+88  0 
 -4.227052e+88  1.429276e+89  0 
 -1.194074e+89  -3.715790e+88  0 
 2.928299e+88  1.455946e+89  0 
 -1.209120e+89  6.608765e+88  0 
 -2.089620e+89  2.437436e+89  0 
 -2.365896e+89  2.465963e+89  0 
 -1.147491e+88  1.460194e+89  0 
 -6.431074e+88  4.415431e+89  0 
 -1.206643e+89  5.566476e+89  0 
 -7.403045e+88  4.863459e+89  0 
 -2.472743e+89  4.753130e+89  0 
VECTORS displacement_ITER22 FLOAT
 9.197028e+87  -8.889420e+88  0 
 -4.227052e+88  1.429276e+89  0 
 -1.194074e+89  -3.715790e+88  0 
 2.928299e+88  1.455946e+89  0 
 -1.209120e+89  6.608765e+88  0 
 -2.089620e+89  2.437436e+89  0 
 -2.365896e+89  2.465963e+89  0 
 -1.147491e+88  1.460194e+89  0 
 -6.431074e+88  4.415431e+89  0 
 -1.206643e+89  5.566476e+89  0 
 -7.403045e+88  4.863459e+89  0 
 -2.472743e+89  4.753130e+89  0 
VECTORS displacement_ITER23 FLOAT
 9.197028e+87  -8.889420e+88  0 
 -4.227052e+88  1.429276e+89  0 
 -1.194074e+89  -3.715790e+88  0 
 2.928299e+88  1.455946e+89  0 
 -1.209120e+89  6.608765e+88  0 
 -2.089620e+89  2.437436e+89  0 
 -2.365896e+89  2.465963e+89  0 
 -1.147491e+88  1.460194e+89  0 
 -6.431074e+88  4.415431e+89  0 
 -1.206643e+89  5.566476e+89  0 
 -7.403045e+88  4.863459e+89  0 
 -2.472743e+89  4.753130e+89  0 
VECTORS displacement_ITER24 FLOAT
 9.197028e+87  -8.889420e+88  0 
 -4.227052e+88  1.429276e+89  0 
 -1.194074e+89  -3.715790e+88  0 
 2.928299e+88  1.455946e+89  0 
 -1.209120e+89  6.608765e+88  0 
 -2.089620e+89  2.437436e+89  0 
 -2.365896e+89  2.465963e+89  0 
 -1.147491e+88  1.460194e+89  0 
 -6.431074e+88  4.415431e+89  0 
 -1.206643e+89  5.566476e+89  0 
 -7.403045e+88  4.863459e+89  0 
 -2.472743e+89  4.753130e+89  0 
VECTORS displacement_ITER25 FLOAT
 9.197028e+87  -8.889420e+88  0 
 -4.227052e+88  1.429276e+89  0 
 -1.194074e+89  -3.715790e+88  0 
 2.928299e+88  1.455946e+89  0 
 -1.209120e+89  6.608765e+88  0 
 -2.089620e+89  2.437436e+89  0 
 -2.365896e+89  2.465963e+89  0 
 -1.147491e+88  1.460194e+89  0 
 -6.431074e+88  4.415431e+89  0 
 -1.206643e+89  5.566476e+89  0 
 -7.403045e+88  4.863459e+89  0 
 -2.472743e+89  4.753130e+89  0 
VECTORS displacement_ITER26 FLOAT
 9.197028e+87  -8.889420e+88  0 
 -4.227052e+88  1.429276e+89  0 
 -1.194074e+89  -3.715790e+88  0 
 2.928299e+88  1.455946e+89  0 
 -1.209120e+89  6.608765e+88  0 
 -2.089620e+89  2.437436e+89  0 
 -2.365896e+89  2.465963e+89  0 
 -1.147491e+88  1.460194e+89  0 
 -6.431074e+88  4.415431e+89  0 
 -1.206643e+89  5.566476e+89  0 
 -7.403045e+88  4.863459e+89  0 
 -2.472743e+89  4.753130e+89  0 
VECTORS displacement_ITER27 FLOAT
 9.197028e+87  -8.889420e+88  0 
 -4.227052e+88  1.429276e+89  0 
 -1.194074e+89  -3.715790e+88  0 
 2.928299e+88  1.455946e+89  0 
 -1.209120e+89  6.608765e+88  0 
 -2.089620e+89  2.437436e+89  0 
 -2.365896e+89  2.465963e+89  0 
 -1.147491e+88  1.460194e+89  0 
 -6.431074e+88  4.415431e+89  0 
 -1.206643e+89  5.566476e+89  0 
 -7.403045e+88  4.863459e+89  0 
 -2.472743e+89  4.753130e+89  0 
VECTORS displacement_ITER28 FLOAT
 9.197028e+87  -8.889420e+88  0 
 -4.227052e+88  1.429276e+89  0 
 -1.194074e+89  -3.715790e+88  0 
 2.928299e+88  1.455946e+89  0 
 -1.209120e+89  6.608765e+88  0 
 -2.089620e+89  2.437436e+89  0 
 -2.365896e+89  2.465963e+89  0 
 -1.147491e+88  1.460194e+89  0 
 -6.431074e+88  4.415431e+89  0 
 -1.206643e+89  5.566476e+89  0 
 -7.403045e+88  4.863459e+89  0 
 -2.472743e+89  4.753130e+89  0 
VECTORS displacement_ITER29 FLOAT
 9.197028e+87  -8.889420e+88  0 
 -4.227052e+88  1.429276e+89  0 
 -1.194074e+89  -3.715790e+88  0 
 2.928299e+88  1.455946e+89  0 
 -1.209120e+89  6.608765e+88  0 
 -2.089620e+89  2.437436e+89  0 
 -2.365896e+89  2.465963e+89  0 
 -1.147491e+88  1.460194e+89  0 
 -6.431074e+88  4.415431e+89  0 
 -1.206643e+89  5.566476e+89  0 
 -7.403045e+88  4.863459e+89  0 
 -2.472743e+89  4.753130e+89  0 
VECTORS displacement_ITER30 FLOAT
 9.197028e+87  -8.889420e+88  0 
 -4.227052e+88  1.429276e+89  0 
 -1.194074e+89  -3.715790e+88  0 
 2.928299e+88  1.455946e+89  0 
 -1.209120e+89  6.608765e+88  0 
 -2.089620e+89  2.437436e+89  0 
 -2.365896e+89  2.465963e+89  0 
 -1.147491e+88  1.460194e+89  0 
 -6.431074e+88  4.415431e+89  0 
 -1.206643e+89  5.566476e+89  0 
 -7.403045e+88  4.863459e+89  0 
 -2.472743e+89  4.753130e+89  0 
VECTORS displacement_ITER31 FLOAT
 9.197028e+87  -8.889420e+88  0 
 -4.227052e+88  1.429276e+89  0 
 -1.194074e+89  -3.715790e+88  0 
 2.928299e+88  1.455946e+89  0 
 -1.209120e+89  6.608765e+88  0 
 -2.089620e+89  2.437436e+89  0 
 -2.365896e+89  2.465963e+89  0 
 -1.147491e+88  1.460194e+89  0 
 -6.431074e+88  4.415431e+89  0 
 -1.206643e+89  5.566476e+89  0 
 -7.403045e+88  4.863459e+89  0 
 -2.472743e+89  4.753130e+89  0 
VECTORS displacement_ITER32 FLOAT
 9.197028e+87  -8.889420e+88  0 
 -4.227052e+88  1.429276e+89  0 
 -1.194074e+89  -3.715790e+88  0 
 2.928299e+88  1.455946e+89  0 
 -1.209120e+89  6.608765e+88  0 
 -2.089620e+89  2.437436e+89  0 
 -2.365896e+89  2.465963e+89  0 
 -1.147491e+88  1.460194e+89  0 
 -6.431074e+88  4.415431e+89  0 
 -1.206643e+89  5.566476e+89  0 
 -7.403045e+88  4.863459e+89  0 
 -2.472743e+89  4.753130e+89  0 
VECTORS displacement_ITER33 FLOAT
 9.197028e+87  -8.889420e+88  0 
 -4.227052e+88  1.429276e+89  0 
 -1.194074e+89  -3.715790e+88  0 
 2.928299e+88  1.455946e+89  0 
 -1.209120e+89  6.608765e+88  0 
 -2.089620e+89  2.437436e+89  0 
 -2.365896e+89  2.465963e+89  0 
 -1.147491e+88  1.460194e+89  0 
 -6.431074e+88  4.415431e+89  0 
 -1.206643e+89  5.566476e+89  0 
 -7.403045e+88  4.863459e+89  0 
 -2.472743e+89  4.753130e+89  0 
VECTORS displacement_ITER34 FLOAT
 9.197028e+87  -8.889420e+88  0 
 -4.227052e+88  1.429276e+89  0 
 -1.194074e+89  -3.715790e+88  0 
 2.928299e+88  1.455946e+89  0 
 -1.209120e+89  6.608765e+88  0 
 -2.089620e+89  2.437436e+89  0 
 -2.365896e+89  2.465963e+89  0 
 -1.147491e+88  1.460194e+89  0 
 -6.431074e+88  4.415431e+89  0 
 -1.206643e+89  5.566476e+89  0 
 -7.403045e+88  4.863459e+89  0 
 -2.472743e+89  4.753130e+89  0 
VECTORS displacement_ITER35 FLOAT
 9.197028e+87  -8.889420e+88  0 
 -4.227052e+88  1.429276e+89  0 
 -1.194074e+89  -3.715790e+88  0 
 2.928299e+88  1.455946e+89  0 
 -1.209120e+89  6.608765e+88  0 
 -2.089620e+89  2.437436e+89  0 
 -2.365896e+89  2.465963e+89  0 
 -1.147491e+88  1.460194e+89  0 
 -6.431074e+88  4.415431e+89  0 
 -1.206643e+89  5.566476e+89  0 
 -7.403045e+88  4.863459e+89  0 
 -2.472743e+89  4.753130e+89  0 
VECTORS displacement_ITER36 FLOAT
 9.197028e+87  -8.889420e+88  0 
 -4.227052e+88  1.429276e+89  0 
 -1.194074e+89  -3.715790e+88  0 
 2.928299e+88  1.455946e+89  0 
 -1.209120e+89  6.608765e+88  0 
 -2.089620e+89  2.437436e+89  0 
 -2.365896e+89  2.465963e+89  0 
 -1.147491e+88  1.460194e+89  0 
 -6.431074e+88  4.415431e+89  0 
 -1.206643e+89  5.566476e+89  0 
 -7.403045e+88  4.863459e+89  0 
 -2.472743e+89  4.753130e+89  0 
VECTORS displacement_ITER37 FLOAT
 9.197028e+87  -8.889420e+88  0 
 -4.227052e+88  1.429276e+89  0 
 -1.194074e+89  -3.715790e+88  0 
 2.928299e+88  1.455946e+89  0 
 -1.209120e+89  6.608765e+88  0 
 -2.089620e+89  2.437436e+89  0 
 -2.365896e+89  2.465963e+89  0 
 -1.147491e+88  1.460194e+89  0 
 -6.431074e+88  4.415431e+89  0 
 -1.206643e+89  5.566476e+89  0 
 -7.403045e+88  4.863459e+89  0 
 -2.472743e+89  4.753130e+89  0 
VECTORS displacement_ITER38 FLOAT
 9.197028e+87  -8.889420e+88  0 
 -4.227052e+88  1.429276e+89  0 
 -1.194074e+89  -3.715790e+88  0 
 2.928299e+88  1.455946e+89  0 
 -1.209120e+89  6.608765e+88  0 
 -2.089620e+89  2.437436e+89  0 
 -2.365896e+89  2.465963e+89  0 
 -1.147491e+88  1.460194e+89  0 
 -6.431074e+88  4.415431e+89  0 
 -1.206643e+89  5.566476e+89  0 
 -7.403045e+88  4.863459e+89  0 
 -2.472743e+89  4.753130e+89  0 
VECTORS displacement_ITER39 FLOAT
 9.197028e+87  -8.889420e+88  0 
 -4.227052e+88  1.429276e+89  0 
 -1.194074e+89  -3.715790e+88  0 
 2.928299e+88  1.455946e+89  0 
 -1.209120e+89  6.608765e+88  0 
 -2.089620e+89  2.437436e+89  0 
 -2.365896e+89  2.465963e+89  0 
 -1.147491e+88  1.460194e+89  0 
 -6.431074e+88  4.415431e+89  0 
 -1.206643e+89  5.566476e+89  0 
 -7.403045e+88  4.863459e+89  0 
 -2.472743e+89  4.753130e+89  0 
VECTORS displacement_ITER40 FLOAT
 9.197028e+87  -8.889420e+88  0 
 -4.227052e+88  1.429276e+89  0 
 -1.194074e+89  -3.715790e+88  0 
 2.928299e+88  1.455946e+89  0 
 -1.209120e+89  6.608765e+88  0 
 -2.089620e+89  2.437436e+89  0 
 -2.365896e+89  2.465963e+89  0 
 -1.147491e+88  1.460194e+89  0 
 -6.431074e+88  4.415431e+89  0 
 -1.206643e+89  5.566476e+89  0 
 -7.403045e+88  4.863459e+89  0 
 -2.472743e+89  4.753130e+89  0 
VECTORS displacement_ITER41 FLOAT
 9.197028e+87  -8.889420e+88  0 
 -4.227052e+88  1.429276e+89  0 
 -1.194074e+89  -3.715790e+88  0 
 2.928299e+88  1.455946e+89  0 
 -1.209120e+89  6.608765e+88  0 
 -2.089620e+89  2.437436e+89  0 
 -2.365896e+89  2.465963e+89  0 
 -1.147491e+88  1.460194e+89  0 
 -6.431074e+88  4.415431e+89  0 
 -1.206643e+89  5.566476e+89  0 
 -7.403045e+88  4.863459e+89  0 
 -2.472743e+89  4.753130e+89  0 
VECTORS displacement_ITER42 FLOAT
 9.197028e+87  -8.889420e+88  0 
 -4.227052e+88  1.429276e+89  0 
 -1.194074e+89  -3.715790e+88  0 
 2.928299e+88  1.455946e+89  0 
 -1.209120e+89  6.608765e+88  0 
 -2.089620e+89  2.437436e+89  0 
 -2.365896e+89  2.465963e+89  0 
 -1.147491e+88  1.460194e+89  0 
 -6.431074e+88  4.415431e+89  0 
 -1.206643e+89  5.566476e+89  0 
 -7.403045e+88  4.863459e+89  0 
 -2.472743e+89  4.753130e+89  0 
VECTORS displacement_ITER43 FLOAT
 9.197028e+87  -8.889420e+88  0 
 -4.227052e+88  1.429276e+89  0 
 -1.194074e+89  -3.715790e+88  0 
 2.928299e+88  1.455946e+89  0 
 -1.209120e+89  6.608765e+88  0 
 -2.089620e+89  2.437436e+89  0 
 -2.365896e+89  2.465963e+89  0 
 -1.147491e+88  1.460194e+89  0 
 -6.431074e+88  4.415431e+89  0 
 -1.206643e+89  5.566476e+89  0 
 -7.403045e+88  4.863459e+89  0 
 -2.472743e+89  4.753130e+89  0 
VECTORS displacement_ITER44 FLOAT
 9.197028e+87  -8.889420e+88  0 
 -4.227052e+88  1.429276e+89  0 
 -1.194074e+89  -3.715790e+88  0 
 2.928299e+88  1.455946e+89  0 
 -1.209120e+89  6.608765e+88  0 
 -2.089620e+89  2.437436e+89  0 
 -2.365896e+89  2.465963e+89  0 
 -1.147491e+88  1.460194e+89  0 
 -6.431074e+88  4.415431e+89  0 
 -1.206643e+89  5.566476e+89  0 
 -7.403045e+88  4.863459e+89  0 
 -2.472743e+89  4.753130e+89  0 
VECTORS displacement_ITER45 FLOAT
 9.197028e+87  -8.889420e+88  0 
 -4.227052e+88  1.429276e+89  0 
 -1.194074e+89  -3.715790e+88  0 
 2.928299e+88  1.455946e+89  0 
 -1.209120e+89  6.608765e+88  0 
 -2.089620e+89  2.437436e+89  0 
 -2.365896e+89  2.465963e+89  0 
 -1.147491e+88  1.460194e+89  0 
 -6.431074e+88  4.415431e+89  0 
 -1.206643e+89  5.566476e+89  0 
 -7.403045e+88  4.863459e+89  0 
 -2.472743e+89  4.753130e+89  0 
VECTORS displacement_ITER46 FLOAT
 9.197028e+87  -8.889420e+88  0 
 -4.227052e+88  1.429276e+89  0 
 -1.194074e+89  -3.715790e+88  0 
 2.928299e+88  1.455946e+89  0 
 -1.209120e+89  6.608765e+88  0 
 -2.089620e+89  2.437436e+89  0 
 -2.365896e+89  2.465963e+89  0 
 -1.147491e+88  1.460194e+89  0 
 -6.431074e+88  4.415431e+89  0 
 -1.206643e+89  5.566476e+89  0 
 -7.403045e+88  4.863459e+89  0 
 -2.472743e+89  4.753130e+89  0 
VECTORS displacement_ITER47 FLOAT
 9.197028e+87  -8.889420e+88  0 
 -4.227052e+88  1.429276e+89  0 
 -1.194074e+89  -3.715790e+88  0 
 2.928299e+88  1.455946e+89  0 
 -1.209120e+89  6.608765e+88  0 
 -2.089620e+89  2.437436e+89  0 
 -2.365896e+89  2.465963e+89  0 
 -1.147491e+88  1.460194e+89  0 
 -6.431074e+88  4.415431e+89  0 
 -1.206643e+89  5.566476e+89  0 
 -7.403045e+88  4.863459e+89  0 
 -2.472743e+89  4.753130e+89  0 
VECTORS displacement_ITER48 FLOAT
 9.197028e+87  -8.889420e+88  0 
 -4.227052e+88  1.429276e+89  0 
 -1.194074e+89  -3.715790e+88  0 
 2.928299e+88  1.455946e+89  0 
 -1.209120e+89  6.608765e+88  0 
 -2.089620e+89  2.437436e+89  0 
 -2.365896e+89  2.465963e+89  0 
 -1.147491e+88  1.460194e+89  0 
 -6.431074e+88  4.415431e+89  0 
 -1.206643e+89  5.566476e+89  0 
 -7.403045e+88  4.863459e+89  0 
 -2.472743e+89  4.753130e+89  0 
VECTORS displacement_ITER49 FLOAT
 9.197028e+87  -8.889420e+88  0 
 -4.227052e+88  1.429276e+89  0 
 -1.194074e+89  -3.715790e+88  0 
 2.928299e+88  1.455946e+89  0 
 -1.209120e+89  6.608765e+88  0 
 -2.089620e+89  2.437436e+89  0 
 -2.365896e+89  2.465963e+89  0 
 -1.147491e+88  1.460194e+89  0 
 -6.431074e+88  4.415431e+89  0 
 -1.206643e+89  5.566476e+89  0 
 -7.403045e+88  4.863459e+89  0 
 -2.472743e+89  4.753130e+89  0 
VECTORS displacement_ITER50 FLOAT
 9.197028e+87  -8.889420e+88  0 
 -4.227052e+88  1.429276e+89  0 
 -1.194074e+89  -3.715790e+88  0 
 2.928299e+88  1.455946e+89  0 
 -1.209120e+89  6.608765e+88  0 
 -2.089620e+89  2.437436e+89  0 
 -2.365896e+89  2.465963e+89  0 
 -1.147491e+88  1.460194e+89  0 
 -6.431074e+88  4.415431e+89  0 
 -1.206643e+89  5.566476e+89  0 
 -7.403045e+88  4.863459e+89  0 
 -2.472743e+89  4.753130e+89  0 
VECTORS displacement_ITER51 FLOAT
 9.197028e+87  -8.889420e+88  0 
 -4.227052e+88  1.429276e+89  0 
 -1.194074e+89  -3.715790e+88  0 
 2.928299e+88  1.455946e+89  0 
 -1.209120e+89  6.608765e+88  0 
 -2.089620e+89  2.437436e+89  0 
 -2.365896e+89  2.465963e+89  0 
 -1.147491e+88  1.460194e+89  0 
 -6.431074e+88  4.415431e+89  0 
 -1.206643e+89  5.566476e+89  0 
 -7.403045e+88  4.863459e+89  0 
 -2.472743e+89  4.753130e+89  0 
VECTORS displacement_ITER52 FLOAT
 9.197028e+87  -8.889420e+88  0 
 -4.227052e+88  1.429276e+89  0 
 -1.194074e+89  -3.715790e+88  0 
 2.928299e+88  1.455946e+89  0 
 -1.209120e+89  6.608765e+88  0 
 -2.089620e+89  2.437436e+89  0 
 -2.365896e+89  2.465963e+89  0 
 -1.147491e+88  1.460194e+89  0 
 -6.431074e+88  4.415431e+89  0 
 -1.206643e+89  5.566476e+89  0 
 -7.403045e+88  4.863459e+89  0 
 -2.472743e+89  4.753130e+89  0 
VECTORS displacement_ITER53 FLOAT
 9.197028e+87  -8.889420e+88  0 
 -4.227052e+88  1.429276e+89  0 
 -1.194074e+89  -3.715790e+88  0 
 2.928299e+88  1.455946e+89  0 
 -1.209120e+89  6.608765e+88  0 
 -2.089620e+89  2.437436e+89  0 
 -2.365896e+89  2.465963e+89  0 
 -1.147491e+88  1.460194e+89  0 
 -6.431074e+88  4.415431e+89  0 
 -1.206643e+89  5.566476e+89  0 
 -7.403045e+88  4.863459e+89  0 
 -2.472743e+89  4.753130e+89  0 
VECTORS displacement_ITER54 FLOAT
 9.197028e+87  -8.889420e+88  0 
 -4.227052e+88  1.429276e+89  0 
 -1.194074e+89  -3.715790e+88  0 
 2.928299e+88  1.455946e+89  0 
 -1.209120e+89  6.608765e+88  0 
 -2.089620e+89  2.437436e+89  0 
 -2.365896e+89  2.465963e+89  0 
 -1.147491e+88  1.460194e+89  0 
 -6.431074e+88  4.415431e+89  0 
 -1.206643e+89  5.566476e+89  0 
 -7.403045e+88  4.863459e+89  0 
 -2.472743e+89  4.753130e+89  0 
VECTORS displacement_ITER55 FLOAT
 9.197028e+87  -8.889420e+88  0 
 -4.227052e+88  1.429276e+89  0 
 -1.194074e+89  -3.715790e+88  0 
 2.928299e+88  1.455946e+89  0 
 -1.209120e+89  6.608765e+88  0 
 -2.089620e+89  2.437436e+89  0 
 -2.365896e+89  2.465963e+89  0 
 -1.147491e+88  1.460194e+89  0 
 -6.431074e+88  4.415431e+89  0 
 -1.206643e+89  5.566476e+89  0 
 -7.403045e+88  4.863459e+89  0 
 -2.472743e+89  4.753130e+89  0 
VECTORS displacement_ITER56 FLOAT
 9.197028e+87  -8.889420e+88  0 
 -4.227052e+88  1.429276e+89  0 
 -1.194074e+89  -3.715790e+88  0 
 2.928299e+88  1.455946e+89  0 
 -1.209120e+89  6.608765e+88  0 
 -2.089620e+89  2.437436e+89  0 
 -2.365896e+89  2.465963e+89  0 
 -1.147491e+88  1.460194e+89  0 
 -6.431074e+88  4.415431e+89  0 
 -1.206643e+89  5.566476e+89  0 
 -7.403045e+88  4.863459e+89  0 
 -2.472743e+89  4.753130e+89  0 
VECTORS displacement_ITER57 FLOAT
 9.197028e+87  -8.889420e+88  0 
 -4.227052e+88  1.429276e+89  0 
 -1.194074e+89  -3.715790e+88  0 
 2.928299e+88  1.455946e+89  0 
 -1.209120e+89  6.608765e+88  0 
 -2.089620e+89  2.437436e+89  0 
 -2.365896e+89  2.465963e+89  0 
 -1.147491e+88  1.460194e+89  0 
 -6.431074e+88  4.415431e+89  0 
 -1.206643e+89  5.566476e+89  0 
 -7.403045e+88  4.863459e+89  0 
 -2.472743e+89  4.753130e+89  0 
VECTORS displacement_ITER58 FLOAT
 9.197028e+87  -8.889420e+88  0 
 -4.227052e+88  1.429276e+89  0 
 -1.194074e+89  -3.715790e+88  0 
 2.928299e+88  1.455946e+89  0 
 -1.209120e+89  6.608765e+88  0 
 -2.089620e+89  2.437436e+89  0 
 -2.365896e+89  2.465963e+89  0 
 -1.147491e+88  1.460194e+89  0 
 -6.431074e+88  4.415431e+89  0 
 -1.206643e+89  5.566476e+89  0 
 -7.403045e+88  4.863459e+89  0 
 -2.472743e+89  4.753130e+89  0 
VECTORS displacement_ITER59 FLOAT
 9.197028e+87  -8.889420e+88  0 
 -4.227052e+88  1.429276e+89  0 
 -1.194074e+89  -3.715790e+88  0 
 2.928299e+88  1.455946e+89  0 
 -1.209120e+89  6.608765e+88  0 
 -2.089620e+89  2.437436e+89  0 
 -2.365896e+89  2.465963e+89  0 
 -1.147491e+88  1.460194e+89  0 
 -6.431074e+88  4.415431e+89  0 
 -1.206643e+89  5.566476e+89  0 
 -7.403045e+88  4.863459e+89  0 
 -2.472743e+89  4.753130e+89  0 
VECTORS displacement_ITER60 FLOAT
 9.197028e+87  -8.889420e+88  0 
 -4.227052e+88  1.429276e+89  0 
 -1.194074e+89  -3.715790e+88  0 
 2.928299e+88  1.455946e+89  0 
 -1.209120e+89  6.608765e+88  0 
 -2.089620e+89  2.437436e+89  0 
 -2.365896e+89  2.465963e+89  0 
 -1.147491e+88  1.460194e+89  0 
 -6.431074e+88  4.415431e+89  0 
 -1.206643e+89  5.566476e+89  0 
 -7.403045e+88  4.863459e+89  0 
 -2.472743e+89  4.753130e+89  0 
VECTORS displacement_ITER61 FLOAT
 9.197028e+87  -8.889420e+88  0 
 -4.227052e+88  1.429276e+89  0 
 -1.194074e+89  -3.715790e+88  0 
 2.928299e+88  1.455946e+89  0 
 -1.209120e+89  6.608765e+88  0 
 -2.089620e+89  2.437436e+89  0 
 -2.365896e+89  2.465963e+89  0 
 -1.147491e+88  1.460194e+89  0 
 -6.431074e+88  4.415431e+89  0 
 -1.206643e+89  5.566476e+89  0 
 -7.403045e+88  4.863459e+89  0 
 -2.472743e+89  4.753130e+89  0 
VECTORS displacement_ITER62 FLOAT
 9.197028e+87  -8.889420e+88  0 
 -4.227052e+88  1.429276e+89  0 
 -1.194074e+89  -3.715790e+88  0 
 2.928299e+88  1.455946e+89  0 
 -1.209120e+89  6.608765e+88  0 
 -2.089620e+89  2.437436e+89  0 
 -2.365896e+89  2.465963e+89  0 
 -1.147491e+88  1.460194e+89  0 
 -6.431074e+88  4.415431e+89  0 
 -1.206643e+89  5.566476e+89  0 
 -7.403045e+88  4.863459e+89  0 
 -2.472743e+89  4.753130e+89  0 
VECTORS displacement_ITER63 FLOAT
 9.197028e+87  -8.889420e+88  0 
 -4.227052e+88  1.429276e+89  0 
 -1.194074e+89  -3.715790e+88  0 
 2.928299e+88  1.455946e+89  0 
 -1.209120e+89  6.608765e+88  0 
 -2.089620e+89  2.437436e+89  0 
 -2.365896e+89  2.465963e+89  0 
 -1.147491e+88  1.460194e+89  0 
 -6.431074e+88  4.415431e+89  0 
 -1.206643e+89  5.566476e+89  0 
 -7.403045e+88  4.863459e+89  0 
 -2.472743e+89  4.753130e+89  0 
VECTORS displacement_ITER64 FLOAT
 9.197028e+87  -8.889420e+88  0 
 -4.227052e+88  1.429276e+89  0 
 -1.194074e+89  -3.715790e+88  0 
 2.928299e+88  1.455946e+89  0 
 -1.209120e+89  6.608765e+88  0 
 -2.089620e+89  2.437436e+89  0 
 -2.365896e+89  2.465963e+89  0 
 -1.147491e+88  1.460194e+89  0 
 -6.431074e+88  4.415431e+89  0 
 -1.206643e+89  5.566476e+89  0 
 -7.403045e+88  4.863459e+89  0 
 -2.472743e+89  4.753130e+89  0 
VECTORS displacement_ITER65 FLOAT
 9.197028e+87  -8.889420e+88  0 
 -4.227052e+88  1.429276e+89  0 
 -1.194074e+89  -3.715790e+88  0 
 2.928299e+88  1.455946e+89  0 
 -1.209120e+89  6.608765e+88  0 
 -2.089620e+89  2.437436e+89  0 
 -2.365896e+89  2.465963e+89  0 
 -1.147491e+88  1.460194e+89  0 
 -6.431074e+88  4.415431e+89  0 
 -1.206643e+89  5.566476e+89  0 
 -7.403045e+88  4.863459e+89  0 
 -2.472743e+89  4.753130e+89  0 
VECTORS displacement_ITER66 FLOAT
 9.197028e+87  -8.889420e+88  0 
 -4.227052e+88  1.429276e+89  0 
 -1.194074e+89  -3.715790e+88  0 
 2.928299e+88  1.455946e+89  0 
 -1.209120e+89  6.608765e+88  0 
 -2.089620e+89  2.437436e+89  0 
 -2.365896e+89  2.465963e+89  0 
 -1.147491e+88  1.460194e+89  0 
 -6.431074e+88  4.415431e+89  0 
 -1.206643e+89  5.566476e+89  0 
 -7.403045e+88  4.863459e+89  0 
 -2.472743e+89  4.753130e+89  0 
VECTORS displacement_ITER67 FLOAT
 9.197028e+87  -8.889420e+88  0 
 -4.227052e+88  1.429276e+89  0 
 -1.194074e+89  -3.715790e+88  0 
 2.928299e+88  1.455946e+89  0 
 -1.209120e+89  6.608765e+88  0 
 -2.089620e+89  2.437436e+89  0 
 -2.365896e+89  2.465963e+89  0 
 -1.147491e+88  1.460194e+89  0 
 -6.431074e+88  4.415431e+89  0 
 -1.206643e+89  5.566476e+89  0 
 -7.403045e+88  4.863459e+89  0 
 -2.472743e+89  4.753130e+89  0 
VECTORS displacement_ITER68 FLOAT
 9.197028e+87  -8.889420e+88  0 
 -4.227052e+88  1.429276e+89  0 
 -1.194074e+89  -3.715790e+88  0 
 2.928299e+88  1.455946e+89  0 
 -1.209120e+89  6.608765e+88  0 
 -2.089620e+89  2.437436e+89  0 
 -2.365896e+89  2.465963e+89  0 
 -1.147491e+88  1.460194e+89  0 
 -6.431074e+88  4.415431e+89  0 
 -1.206643e+89  5.566476e+89  0 
 -7.403045e+88  4.863459e+89  0 
 -2.472743e+89  4.753130e+89  0 
VECTORS displacement_ITER69 FLOAT
 9.197028e+87  -8.889420e+88  0 
 -4.227052e+88  1.429276e+89  0 
 -1.194074e+89  -3.715790e+88  0 
 2.928299e+88  1.455946e+89  0 